2
Lattice="2.175 -1.2557368354874359 0.0 2.175 1.2557368354874359 0.0 0.0 0.0 14.5" Properties=species:S:1:pos:R:3 energy=-78.29243243542784 pbc="T T F"
B        1.45000000       0.00000000       0.00000000
N        2.90000000       0.00000000       0.00000000
