2
Lattice="2.13 -1.2297560733739028 0.0 2.13 1.2297560733739028 0.0 0.0 0.0 14.2" Properties=species:S:1:pos:R:3 energy=-74.84589260700187 pbc="T T F"
C        1.42000000      -0.00000000       0.00000000
C        2.84000000      -0.00000000       0.00000000
2
Lattice="2.13 -1.2297560733739028 0.0 2.13 1.2297560733739028 0.0 0.0 0.0 14.2" Properties=species:S:1:pos:R:3 energy=-74.84588045997597 pbc="T T F"
C        1.42144898      -0.00000000       0.00000000
C        2.83855102      -0.00000000       0.00000000
2
Lattice="2.13 -1.2297560733739028 0.0 2.13 1.2297560733739028 0.0 0.0 0.0 14.2" Properties=species:S:1:pos:R:3 energy=-74.84584385009666 pbc="T T F"
C        1.42289796      -0.00000000       0.00000000
C        2.83710204      -0.00000000       0.00000000
2
Lattice="2.13 -1.2297560733739028 0.0 2.13 1.2297560733739028 0.0 0.0 0.0 14.2" Properties=species:S:1:pos:R:3 energy=-74.8457825806344 pbc="T T F"
C        1.42434694      -0.00000000       0.00000000
C        2.83565306      -0.00000000       0.00000000
2
Lattice="2.13 -1.2297560733739028 0.0 2.13 1.2297560733739028 0.0 0.0 0.0 14.2" Properties=species:S:1:pos:R:3 energy=-74.8456964429048 pbc="T T F"
C        1.42579592      -0.00000000       0.00000000
C        2.83420408      -0.00000000       0.00000000
2
Lattice="2.13 -1.2297560733739028 0.0 2.13 1.2297560733739028 0.0 0.0 0.0 14.2" Properties=species:S:1:pos:R:3 energy=-74.84558523263065 pbc="T T F"
C        1.42724490      -0.00000000       0.00000000
C        2.83275510      -0.00000000       0.00000000
2
Lattice="2.13 -1.2297560733739028 0.0 2.13 1.2297560733739028 0.0 0.0 0.0 14.2" Properties=species:S:1:pos:R:3 energy=-74.8454487431516 pbc="T T F"
C        1.42869388      -0.00000000       0.00000000
C        2.83130612      -0.00000000       0.00000000
2
Lattice="2.13 -1.2297560733739028 0.0 2.13 1.2297560733739028 0.0 0.0 0.0 14.2" Properties=species:S:1:pos:R:3 energy=-74.84528677919546 pbc="T T F"
C        1.43014286      -0.00000000       0.00000000
C        2.82985714      -0.00000000       0.00000000
2
Lattice="2.13 -1.2297560733739028 0.0 2.13 1.2297560733739028 0.0 0.0 0.0 14.2" Properties=species:S:1:pos:R:3 energy=-74.84509912980114 pbc="T T F"
C        1.43159184      -0.00000000       0.00000000
C        2.82840816      -0.00000000       0.00000000
2
Lattice="2.13 -1.2297560733739028 0.0 2.13 1.2297560733739028 0.0 0.0 0.0 14.2" Properties=species:S:1:pos:R:3 energy=-74.84488560371102 pbc="T T F"
C        1.43304082      -0.00000000       0.00000000
C        2.82695918      -0.00000000       0.00000000
2
Lattice="2.13 -1.2297560733739028 0.0 2.13 1.2297560733739028 0.0 0.0 0.0 14.2" Properties=species:S:1:pos:R:3 energy=-74.84464600267106 pbc="T T F"
C        1.43448980      -0.00000000       0.00000000
C        2.82551020      -0.00000000       0.00000000
2
Lattice="2.13 -1.2297560733739028 0.0 2.13 1.2297560733739028 0.0 0.0 0.0 14.2" Properties=species:S:1:pos:R:3 energy=-74.84438012538948 pbc="T T F"
C        1.43593878      -0.00000000       0.00000000
C        2.82406122      -0.00000000       0.00000000
2
Lattice="2.13 -1.2297560733739028 0.0 2.13 1.2297560733739028 0.0 0.0 0.0 14.2" Properties=species:S:1:pos:R:3 energy=-74.84408777946652 pbc="T T F"
C        1.43738776      -0.00000000       0.00000000
C        2.82261224      -0.00000000       0.00000000
2
Lattice="2.13 -1.2297560733739028 0.0 2.13 1.2297560733739028 0.0 0.0 0.0 14.2" Properties=species:S:1:pos:R:3 energy=-74.8437687714529 pbc="T T F"
C        1.43883673      -0.00000000       0.00000000
C        2.82116327      -0.00000000       0.00000000
2
Lattice="2.13 -1.2297560733739028 0.0 2.13 1.2297560733739028 0.0 0.0 0.0 14.2" Properties=species:S:1:pos:R:3 energy=-74.84342290845339 pbc="T T F"
C        1.44028571      -0.00000000       0.00000000
C        2.81971429      -0.00000000       0.00000000
2
Lattice="2.13 -1.2297560733739028 0.0 2.13 1.2297560733739028 0.0 0.0 0.0 14.2" Properties=species:S:1:pos:R:3 energy=-74.84304999870552 pbc="T T F"
C        1.44173469      -0.00000000       0.00000000
C        2.81826531      -0.00000000       0.00000000
2
Lattice="2.13 -1.2297560733739028 0.0 2.13 1.2297560733739028 0.0 0.0 0.0 14.2" Properties=species:S:1:pos:R:3 energy=-74.84264985322474 pbc="T T F"
C        1.44318367      -0.00000000       0.00000000
C        2.81681633      -0.00000000       0.00000000
2
Lattice="2.13 -1.2297560733739028 0.0 2.13 1.2297560733739028 0.0 0.0 0.0 14.2" Properties=species:S:1:pos:R:3 energy=-74.84222228283772 pbc="T T F"
C        1.44463265      -0.00000000       0.00000000
C        2.81536735      -0.00000000       0.00000000
2
Lattice="2.13 -1.2297560733739028 0.0 2.13 1.2297560733739028 0.0 0.0 0.0 14.2" Properties=species:S:1:pos:R:3 energy=-74.84176709775599 pbc="T T F"
C        1.44608163      -0.00000000       0.00000000
C        2.81391837      -0.00000000       0.00000000
2
Lattice="2.13 -1.2297560733739028 0.0 2.13 1.2297560733739028 0.0 0.0 0.0 14.2" Properties=species:S:1:pos:R:3 energy=-74.84128411199951 pbc="T T F"
C        1.44753061      -0.00000000       0.00000000
C        2.81246939      -0.00000000       0.00000000
2
Lattice="2.13 -1.2297560733739028 0.0 2.13 1.2297560733739028 0.0 0.0 0.0 14.2" Properties=species:S:1:pos:R:3 energy=-74.84077313998714 pbc="T T F"
C        1.44897959      -0.00000000       0.00000000
C        2.81102041      -0.00000000       0.00000000
2
Lattice="2.13 -1.2297560733739028 0.0 2.13 1.2297560733739028 0.0 0.0 0.0 14.2" Properties=species:S:1:pos:R:3 energy=-74.84023399578791 pbc="T T F"
C        1.45042857      -0.00000000       0.00000000
C        2.80957143      -0.00000000       0.00000000
2
Lattice="2.13 -1.2297560733739028 0.0 2.13 1.2297560733739028 0.0 0.0 0.0 14.2" Properties=species:S:1:pos:R:3 energy=-74.8396664954434 pbc="T T F"
C        1.45187755      -0.00000000       0.00000000
C        2.80812245      -0.00000000       0.00000000
2
Lattice="2.13 -1.2297560733739028 0.0 2.13 1.2297560733739028 0.0 0.0 0.0 14.2" Properties=species:S:1:pos:R:3 energy=-74.83907045621305 pbc="T T F"
C        1.45332653      -0.00000000       0.00000000
C        2.80667347      -0.00000000       0.00000000
2
Lattice="2.13 -1.2297560733739028 0.0 2.13 1.2297560733739028 0.0 0.0 0.0 14.2" Properties=species:S:1:pos:R:3 energy=-74.83844569559179 pbc="T T F"
C        1.45477551      -0.00000000       0.00000000
C        2.80522449      -0.00000000       0.00000000
2
Lattice="2.13 -1.2297560733739028 0.0 2.13 1.2297560733739028 0.0 0.0 0.0 14.2" Properties=species:S:1:pos:R:3 energy=-74.83779203115873 pbc="T T F"
C        1.45622449      -0.00000000       0.00000000
C        2.80377551      -0.00000000       0.00000000
2
Lattice="2.13 -1.2297560733739028 0.0 2.13 1.2297560733739028 0.0 0.0 0.0 14.2" Properties=species:S:1:pos:R:3 energy=-74.83710928508319 pbc="T T F"
C        1.45767347      -0.00000000       0.00000000
C        2.80232653      -0.00000000       0.00000000
2
Lattice="2.13 -1.2297560733739028 0.0 2.13 1.2297560733739028 0.0 0.0 0.0 14.2" Properties=species:S:1:pos:R:3 energy=-74.83639727876682 pbc="T T F"
C        1.45912245      -0.00000000       0.00000000
C        2.80087755      -0.00000000       0.00000000
2
Lattice="2.13 -1.2297560733739028 0.0 2.13 1.2297560733739028 0.0 0.0 0.0 14.2" Properties=species:S:1:pos:R:3 energy=-74.83565583273756 pbc="T T F"
C        1.46057143      -0.00000000       0.00000000
C        2.79942857      -0.00000000       0.00000000
2
Lattice="2.13 -1.2297560733739028 0.0 2.13 1.2297560733739028 0.0 0.0 0.0 14.2" Properties=species:S:1:pos:R:3 energy=-74.83488477212198 pbc="T T F"
C        1.46202041      -0.00000000       0.00000000
C        2.79797959      -0.00000000       0.00000000
2
Lattice="2.13 -1.2297560733739028 0.0 2.13 1.2297560733739028 0.0 0.0 0.0 14.2" Properties=species:S:1:pos:R:3 energy=-74.83408392151384 pbc="T T F"
C        1.46346939      -0.00000000       0.00000000
C        2.79653061      -0.00000000       0.00000000
2
Lattice="2.13 -1.2297560733739028 0.0 2.13 1.2297560733739028 0.0 0.0 0.0 14.2" Properties=species:S:1:pos:R:3 energy=-74.83325310509943 pbc="T T F"
C        1.46491837      -0.00000000       0.00000000
C        2.79508163      -0.00000000       0.00000000
2
Lattice="2.13 -1.2297560733739028 0.0 2.13 1.2297560733739028 0.0 0.0 0.0 14.2" Properties=species:S:1:pos:R:3 energy=-74.83239215115279 pbc="T T F"
C        1.46636735      -0.00000000       0.00000000
C        2.79363265      -0.00000000       0.00000000
2
Lattice="2.13 -1.2297560733739028 0.0 2.13 1.2297560733739028 0.0 0.0 0.0 14.2" Properties=species:S:1:pos:R:3 energy=-74.83150088851079 pbc="T T F"
C        1.46781633      -0.00000000       0.00000000
C        2.79218367      -0.00000000       0.00000000
2
Lattice="2.13 -1.2297560733739028 0.0 2.13 1.2297560733739028 0.0 0.0 0.0 14.2" Properties=species:S:1:pos:R:3 energy=-74.83090967180014 pbc="T T F"
C        1.46926531      -0.00000000       0.00000000
C        2.79073469      -0.00000000       0.00000000
2
Lattice="2.13 -1.2297560733739028 0.0 2.13 1.2297560733739028 0.0 0.0 0.0 14.2" Properties=species:S:1:pos:R:3 energy=-74.83025911971728 pbc="T T F"
C        1.47071429      -0.00000000       0.00000000
C        2.78928571      -0.00000000       0.00000000
2
Lattice="2.13 -1.2297560733739028 0.0 2.13 1.2297560733739028 0.0 0.0 0.0 14.2" Properties=species:S:1:pos:R:3 energy=-74.82957999515511 pbc="T T F"
C        1.47216327      -0.00000000       0.00000000
C        2.78783673      -0.00000000       0.00000000
2
Lattice="2.13 -1.2297560733739028 0.0 2.13 1.2297560733739028 0.0 0.0 0.0 14.2" Properties=species:S:1:pos:R:3 energy=-74.82887218076085 pbc="T T F"
C        1.47361224      -0.00000000       0.00000000
C        2.78638776      -0.00000000       0.00000000
2
Lattice="2.13 -1.2297560733739028 0.0 2.13 1.2297560733739028 0.0 0.0 0.0 14.2" Properties=species:S:1:pos:R:3 energy=-74.82813556463725 pbc="T T F"
C        1.47506122      -0.00000000       0.00000000
C        2.78493878      -0.00000000       0.00000000
2
Lattice="2.13 -1.2297560733739028 0.0 2.13 1.2297560733739028 0.0 0.0 0.0 14.2" Properties=species:S:1:pos:R:3 energy=-74.82737002710375 pbc="T T F"
C        1.47651020      -0.00000000       0.00000000
C        2.78348980      -0.00000000       0.00000000
2
Lattice="2.13 -1.2297560733739028 0.0 2.13 1.2297560733739028 0.0 0.0 0.0 14.2" Properties=species:S:1:pos:R:3 energy=-74.82657544419627 pbc="T T F"
C        1.47795918      -0.00000000       0.00000000
C        2.78204082      -0.00000000       0.00000000
2
Lattice="2.13 -1.2297560733739028 0.0 2.13 1.2297560733739028 0.0 0.0 0.0 14.2" Properties=species:S:1:pos:R:3 energy=-74.82575169129632 pbc="T T F"
C        1.47940816      -0.00000000       0.00000000
C        2.78059184      -0.00000000       0.00000000
2
Lattice="2.13 -1.2297560733739028 0.0 2.13 1.2297560733739028 0.0 0.0 0.0 14.2" Properties=species:S:1:pos:R:3 energy=-74.8248986333054 pbc="T T F"
C        1.48085714      -0.00000000       0.00000000
C        2.77914286      -0.00000000       0.00000000
2
Lattice="2.13 -1.2297560733739028 0.0 2.13 1.2297560733739028 0.0 0.0 0.0 14.2" Properties=species:S:1:pos:R:3 energy=-74.82401612512956 pbc="T T F"
C        1.48230612      -0.00000000       0.00000000
C        2.77769388      -0.00000000       0.00000000
2
Lattice="2.13 -1.2297560733739028 0.0 2.13 1.2297560733739028 0.0 0.0 0.0 14.2" Properties=species:S:1:pos:R:3 energy=-74.8231040158706 pbc="T T F"
C        1.48375510      -0.00000000       0.00000000
C        2.77624490      -0.00000000       0.00000000
2
Lattice="2.13 -1.2297560733739028 0.0 2.13 1.2297560733739028 0.0 0.0 0.0 14.2" Properties=species:S:1:pos:R:3 energy=-74.82216214116397 pbc="T T F"
C        1.48520408      -0.00000000       0.00000000
C        2.77479592      -0.00000000       0.00000000
2
Lattice="2.13 -1.2297560733739028 0.0 2.13 1.2297560733739028 0.0 0.0 0.0 14.2" Properties=species:S:1:pos:R:3 energy=-74.82119032261055 pbc="T T F"
C        1.48665306      -0.00000000       0.00000000
C        2.77334694      -0.00000000       0.00000000
2
Lattice="2.13 -1.2297560733739028 0.0 2.13 1.2297560733739028 0.0 0.0 0.0 14.2" Properties=species:S:1:pos:R:3 energy=-74.82018836573893 pbc="T T F"
C        1.48810204      -0.00000000       0.00000000
C        2.77189796      -0.00000000       0.00000000
2
Lattice="2.13 -1.2297560733739028 0.0 2.13 1.2297560733739028 0.0 0.0 0.0 14.2" Properties=species:S:1:pos:R:3 energy=-74.8191560576144 pbc="T T F"
C        1.48955102      -0.00000000       0.00000000
C        2.77044898      -0.00000000       0.00000000
2
Lattice="2.13 -1.2297560733739028 0.0 2.13 1.2297560733739028 0.0 0.0 0.0 14.2" Properties=species:S:1:pos:R:3 energy=-74.81809316506983 pbc="T T F"
C        1.49100000      -0.00000000       0.00000000
C        2.76900000      -0.00000000       0.00000000
