System: uname_result(system='Linux', node='cosmopc18', release='5.15.0-97-generic', version='#107-Ubuntu SMP Wed Feb 7 13:26:48 UTC 2024', machine='x86_64')  Threads 4
Python 3.11.8 (main, Feb 26 2024, 21:39:34) [GCC 11.2.0]
numpy 1.26.4  scipy 1.11.4
Date: Tue Apr  9 10:04:41 2024
PySCF version 2.3.0
PySCF path  /home/saade/miniconda3/envs/tutorial/lib/python3.11/site-packages/pyscf

[ENV] PYSCFAD_BACKEND torch
[CONFIG] conf_file None
[INPUT] verbose = 5
[INPUT] max_memory = 4000 
[INPUT] num. atoms = 36
[INPUT] num. electrons = 146
[INPUT] charge = 0
[INPUT] spin (= nelec alpha-beta = 2S) = 0
[INPUT] symmetry False subgroup None
[INPUT] Mole.unit = angstrom
[INPUT] Symbol           X                Y                Z      unit          X                Y                Z       unit  Magmom
[INPUT]  1 C     -0.041409000000   3.763283000000   0.791514000000 AA   -0.078251669092   7.111574199232   1.495744683759 Bohr   0.0
[INPUT]  2 C      0.003148000000   3.479923000000  -0.933434000000 AA    0.005948857840   6.576101404575  -1.763934615357 Bohr   0.0
[INPUT]  3 C      0.142867000000   5.006658000000   1.337254000000 AA    0.269979502238   9.461212419363   2.527043818979 Bohr   0.0
[INPUT]  4 C     -0.098618000000   2.460094000000   1.297200000000 AA   -0.186361010952   4.648903900686   2.451352728786 Bohr   0.0
[INPUT]  5 C      0.125921000000   4.905826000000  -1.330049000000 AA    0.237956203331   9.270667554771  -2.513428342252 Bohr   0.0
[INPUT]  6 C      0.006152000000   2.512476000000  -1.141529000000 AA    0.011625595118   4.747891534543  -2.157177173249 Bohr   0.0
[INPUT]  7 C      0.149329000000   6.210543000000  -0.936074000000 AA    0.282190912455  11.736225354835  -1.768923492326 Bohr   0.0
[INPUT]  8 C     -0.142496000000   6.212041000000   0.607740000000 AA   -0.269278413846  11.739056164569   1.148462154943 Bohr   0.0
[INPUT]  9 C      0.075303000000   1.348263000000   0.746397000000 AA    0.142302046358   2.547847813884   1.410485910197 Bohr   0.0
[INPUT] 10 C      0.030228000000   1.178674000000  -0.837145000000 AA    0.057122641293   2.227371050146  -1.581974776549 Bohr   0.0
[INPUT] 11 C      0.020154000000  -0.000819000000   1.534733000000 AA    0.038085540314  -0.001547685696   2.900225044332 Bohr   0.0
[INPUT] 12 C      0.163433000000  -0.044721000000  -1.318347000000 AA    0.308843609716  -0.084510442017  -2.491314767142 Bohr   0.0
[INPUT] 13 C     -0.149340000000  -1.235450000000   0.776899000000 AA   -0.282211699443  -2.334662140594   1.468126336448 Bohr   0.0
[INPUT] 14 C     -0.197973000000  -1.309277000000  -0.703297000000 AA   -0.374114750059  -2.474174951192  -1.329038714228 Bohr   0.0
[INPUT] 15 C     -0.084988000000  -2.378580000000   1.420161000000 AA   -0.160604043875  -4.494864765368   2.683715342788 Bohr   0.0
[INPUT] 16 C      0.046858000000  -2.386095000000  -1.435640000000 AA    0.088548786745  -4.509066057194  -2.712966413471 Bohr   0.0
[INPUT] 17 C     -0.054501000000  -3.506117000000   0.796016000000 AA   -0.102991963515  -6.625600890682   1.504252230772 Bohr   0.0
[INPUT] 18 C     -0.063267000000  -3.756379000000  -0.775480000000 AA   -0.119557302723  -7.098527530068  -1.465444815078 Bohr   0.0
[INPUT] 19 C     -0.042976000000  -4.923378000000   1.425549000000 AA   -0.081212869929  -9.303836027709   2.693897187148 Bohr   0.0
[INPUT] 20 C      0.041323000000  -5.078981000000  -1.353607000000 AA    0.078089152645  -9.597883081870  -2.557946510294 Bohr   0.0
[INPUT] 21 C     -0.034818000000  -6.102240000000   0.572604000000 AA   -0.065796484205 -11.531562346366   1.082064737830 Bohr   0.0
[INPUT] 22 C      0.008360000000  -6.098015000000  -0.679795000000 AA    0.015798110401 -11.523578253490  -1.284626370849 Bohr   0.0
[INPUT] 23 H      0.037423000000   5.001631000000   2.472859000000 AA    0.070719220760   9.451712766134   4.673026254666 Bohr   0.0
[INPUT] 24 H     -0.055076000000   2.488483000000   2.547741000000 AA   -0.104078556037   4.702551335636   4.814532726326 Bohr   0.0
[INPUT] 25 H     -0.077390000000   4.868503000000  -2.507948000000 AA   -0.146245904780   9.200137306623  -4.739334854651 Bohr   0.0
[INPUT] 26 H     -0.183134000000   2.403184000000  -2.524609000000 AA   -0.346073104096   4.541359586937  -4.770819581612 Bohr   0.0
[INPUT] 27 H      0.046094000000   6.876375000000  -1.278337000000 AA    0.087105035986  12.994465479806  -2.415706824898 Bohr   0.0
[INPUT] 28 H     -0.061903000000   6.922327000000   1.134707000000 AA   -0.116979716289  13.081302174682   2.144285461627 Bohr   0.0
[INPUT] 29 H      0.102248000000  -0.139460000000   2.619556000000 AA    0.193220716785  -0.263541205332   4.950243407961 Bohr   0.0
[INPUT] 30 H     -0.118298000000   0.048607000000  -2.519796000000 AA   -0.223550821084   0.091853917737  -4.761724329775 Bohr   0.0
[INPUT] 31 H      0.079018000000  -2.508954000000   2.483904000000 AA    0.149322378911  -4.741235919132   4.693898279712 Bohr   0.0
[INPUT] 32 H      0.033490000000  -2.502981000000  -2.530454000000 AA    0.063286927912  -4.729948584990  -4.781865030810 Bohr   0.0
[INPUT] 33 H     -0.029055000000  -5.094867000000   2.439943000000 AA   -0.054905992549  -9.627903271084   4.610824029550 Bohr   0.0
[INPUT] 34 H     -0.078303000000  -4.961588000000  -2.512472000000 AA   -0.147971224732  -9.376042462929  -4.747883975638 Bohr   0.0
[INPUT] 35 H      0.062722000000  -6.921884000000   1.291229000000 AA    0.118527401985 -13.080465026009   2.440069174096 Bohr   0.0
[INPUT] 36 H     -0.032544000000  -7.076386000000  -1.099399000000 AA   -0.061499246998 -13.372431491706  -2.077563011621 Bohr   0.0
[INPUT] ---------------- BASIS SET ---------------- 
[INPUT] l, kappa, [nprim/nctr], expnt,             c_1 c_2 ...
[INPUT] H
[INPUT] 0    0    [3    /1   ]  3.42525091        0.15432897
                                0.62391373        0.53532814
                                0.1688554         0.44463454
[INPUT] C
[INPUT] 0    0    [3    /1   ]  71.616837         0.15432897
                                13.045096         0.53532814
                                3.5305122         0.44463454
[INPUT] 0    0    [3    /1   ]  2.9412494         -0.09996723
                                0.6834831         0.39951283
                                0.2222899         0.70011547
[INPUT] 1    0    [3    /1   ]  2.9412494         0.15591627
                                0.6834831         0.60768372
                                0.2222899         0.39195739

nuclear repulsion = 1495.20544543683
number of shells = 80
number of NR pGTOs = 372
number of NR cGTOs = 124
basis = sto3g
ecp = {}
CPU time:      3321.77
atom C rad-grids = 99, ang-grids = [ 50  50  50  50  50  50  50  50  50  50  50  50  50  50  50  50  50  50
  50  50  50  50  50  50  50  50  50  50  50  50  50  86  86  86  86  86
  86  86  86  86  86  86  86 434 434 434 434 434 434 434 434 434 590 590
 590 590 590 590 590 590 590 590 590 590 590 590 590 590 590 590 590 590
 590 590 590 590 590 590 590 434 434 434 434 434 434 434 434 434 434 434
 434 434 434 434 434 434 434 434 434]
atom H rad-grids = 99, ang-grids = [ 50  50  50  50  50  50  50  50  50  50  50  50  50  50  50  50  50  50
  50  50  50  50  50  50  50  50  50  50  86  86  86  86  86  86  86 434
 434 434 434 434 434 434 434 590 590 590 590 590 590 590 590 590 590 590
 590 590 590 590 590 590 590 590 590 590 590 590 590 590 590 434 434 434
 434 434 434 434 434 434 434 434 434 434 434 434 434 434 434 434 434 434
 434 434 434 434 434 434 434 434 434]
tot_boxes 5270, boxes in each direction [ 8 29 15]
Padding 0 grids
tot grids = 1157832


******** <class 'pyscf.dft.rks.RKS'> ********
method = RKS
initial guess = minao
damping factor = 0
level_shift factor = 0
DIIS = <class 'pyscf.scf.diis.CDIIS'>
diis_start_cycle = 1
diis_space = 8
SCF conv_tol = 1e-10
SCF conv_tol_grad = None
SCF max_cycles = 50
direct_scf = True
direct_scf_tol = 1e-13
chkfile to save SCF result = /home/saade/mlelec/tutorials/tmp69835kan
max_memory 4000 MB (current use 635 MB)
XC library pyscf.dft.libxc version 6.1.0
    S. Lehtola, C. Steigemann, M. J.T. Oliveira, and M. A.L. Marques.,  SoftwareX 7, 1–5 (2018)
XC functionals = b3lypg
    P. J. Stephens, F. J. Devlin, C. F. Chabalowski, and M. J. Frisch.,  J. Phys. Chem. 98, 11623 (1994)
radial grids: 
    Treutler-Ahlrichs [JCP 102, 346 (1995); DOI:10.1063/1.469408] (M4) radial grids
    
becke partition: Becke, JCP 88, 2547 (1988); DOI:10.1063/1.454033
pruning grids: <function nwchem_prune at 0x7f9db5616ca0>
grids dens level: 3
symmetrized grids: False
atomic radii adjust function: <function treutler_atomic_radii_adjust at 0x7f9db5617380>
User specified grid scheme (99, 590)
small_rho_cutoff = 1e-07
Set gradient conv threshold to 1e-05
Initial guess from minao.
nelec by numeric integration = 145.26864060689945
    CPU time for vxc     37.91 sec, wall time     15.81 sec
E1 = -4089.462435101473  Ecoul = 1878.874309014884  Exc = -126.17048531339785
init E= -841.553165963158
cond(S) = 48.836568788274235
    CPU time for initialize scf     47.71 sec, wall time     18.14 sec
  HOMO = -0.206576036872556  LUMO = -0.157078639936605
  mo_energy =
[-1.02241403e+01 -1.02010501e+01 -1.01409009e+01 -1.01334201e+01
 -1.01289200e+01 -1.01150732e+01 -1.01104500e+01 -1.01102162e+01
 -1.01097414e+01 -1.01096145e+01 -1.01065758e+01 -1.01024286e+01
 -1.01015071e+01 -1.00988953e+01 -1.00939959e+01 -1.00923207e+01
 -1.00871001e+01 -1.00859835e+01 -1.00835199e+01 -1.00826683e+01
 -1.00779149e+01 -1.00740346e+01 -1.11723867e+00 -1.07562053e+00
 -1.04392994e+00 -9.89915581e-01 -9.76011752e-01 -9.55311130e-01
 -9.12119488e-01 -8.82497816e-01 -8.73752644e-01 -8.53392334e-01
 -8.06553967e-01 -7.82277443e-01 -7.35739296e-01 -7.27055611e-01
 -6.87337558e-01 -6.74505216e-01 -6.68368942e-01 -6.35332589e-01
 -6.17181441e-01 -5.95505542e-01 -5.70030909e-01 -5.67054503e-01
 -5.54458950e-01 -5.34573099e-01 -5.33526200e-01 -5.14946316e-01
 -5.04466936e-01 -4.83854149e-01 -4.71224260e-01 -4.66333708e-01
 -4.55808421e-01 -4.50640916e-01 -4.44830950e-01 -4.41210487e-01
 -4.31487296e-01 -4.27925795e-01 -4.09654429e-01 -4.01237186e-01
 -3.86730236e-01 -3.84475106e-01 -3.74702557e-01 -3.59730380e-01
 -3.52797331e-01 -3.37267149e-01 -3.20210930e-01 -3.06760080e-01
 -2.91186714e-01 -2.77733875e-01 -2.59325699e-01 -2.27104767e-01
 -2.06576037e-01 -1.57078640e-01 -1.00236228e-01 -7.96081015e-02
 -4.97947272e-02 -3.98006051e-02 -1.97264759e-02  2.97778749e-03
  2.97366761e-02  7.46894356e-02  9.72041235e-02  1.12300573e-01
  1.37390072e-01  1.53701952e-01  1.59006915e-01  1.64027671e-01
  1.80870505e-01  2.01206671e-01  2.01574090e-01  2.27288280e-01
  2.33363448e-01  2.35568178e-01  2.51389448e-01  2.58054067e-01
  2.75937859e-01  2.87718605e-01  3.09796208e-01  3.20981960e-01
  3.28994629e-01  3.46233928e-01  3.51894144e-01  3.68940001e-01
  3.84754977e-01  4.00022581e-01  4.12682227e-01  4.44724351e-01
  4.67435243e-01  4.78399902e-01  4.89004114e-01  5.13695292e-01
  5.55946109e-01  5.68241628e-01  5.95758510e-01  6.60541695e-01
  6.68705857e-01  6.78635973e-01  6.99433026e-01  7.52350323e-01
  7.62269272e-01  7.90793047e-01  9.03953328e-01  1.33639218e+00]
nelec by numeric integration = 146.00000015749953
    CPU time for vxc     38.80 sec, wall time     16.17 sec
E1 = -4103.3949567062555  Ecoul = 1897.7155743657186  Exc = -124.80536546945673
cycle= 1 E= -835.279302373165  delta_E= 6.27  |g|= 0.292  |ddm|= 9.37
    CPU time for cycle= 1     39.09 sec, wall time     16.22 sec
  HOMO = -0.0978908472262785  LUMO = -0.0212164233336426
  mo_energy =
[-10.05227472 -10.04407152 -10.03467512 -10.03094381 -10.02762849
 -10.01696384 -10.01230708 -10.00654002 -10.00534601 -10.00514518
 -10.00119064  -9.9976586   -9.98781268  -9.98049769  -9.98008175
  -9.97756003  -9.97682722  -9.97671911  -9.97124057  -9.97022447
  -9.94806237  -9.94608513  -0.83857395  -0.81667847  -0.80743488
  -0.77485848  -0.75297439  -0.73792912  -0.72216219  -0.70274389
  -0.69494839  -0.67876984  -0.64617065  -0.63171803  -0.59265825
  -0.58381456  -0.56143718  -0.54921616  -0.53322704  -0.49693141
  -0.4873643   -0.48281251  -0.46270666  -0.45247489  -0.44947229
  -0.42372076  -0.41748358  -0.41255259  -0.39273857  -0.37639924
  -0.37151114  -0.36064781  -0.35413071  -0.35115411  -0.34508755
  -0.33880874  -0.32576105  -0.32191043  -0.30974695  -0.30043549
  -0.28332754  -0.27837925  -0.26787056  -0.25614556  -0.25492495
  -0.24682494  -0.23037734  -0.20754084  -0.19119477  -0.17201079
  -0.15468029  -0.1161622   -0.09789085  -0.02121642   0.0425379
   0.0639508    0.09396864   0.09722372   0.14104455   0.150275
   0.18353828   0.23821363   0.26015661   0.26153579   0.27875473
   0.29984041   0.30617119   0.30708672   0.31480312   0.33769995
   0.35950203   0.37250238   0.37323448   0.39317623   0.40075515
   0.41459163   0.42722565   0.43815123   0.44631369   0.45731521
   0.45866203   0.47844335   0.49366633   0.51523457   0.53300188
   0.54167535   0.56847187   0.56906313   0.61473231   0.62157337
   0.62886539   0.65916889   0.70001019   0.71694465   0.74356072
   0.79927772   0.82808628   0.83333172   0.87101411   0.91995958
   0.93585527   0.95207317   1.02440413   1.57790457]
nelec by numeric integration = 146.0000001304536
    CPU time for vxc     39.01 sec, wall time     16.19 sec
E1 = -4098.548007890984  Ecoul = 1892.7231139821697  Exc = -124.65603442505585
cycle= 2 E= -835.275482897041  delta_E= 0.00382  |g|= 0.324  |ddm|= 0.93
    CPU time for cycle= 2     39.43 sec, wall time     16.25 sec
  HOMO = -0.106814356921019  LUMO = -0.0284757827202367
  mo_energy =
[-10.06905394 -10.05505844 -10.04527062 -10.03600067 -10.03385693
 -10.03258922 -10.0298039  -10.02602077 -10.02286574 -10.0221513
 -10.02175137 -10.01907369 -10.01775627 -10.01300344 -10.01119253
 -10.00833816 -10.00797578 -10.00179077 -10.00170708  -9.99512726
  -9.98394871  -9.98065196  -0.87107814  -0.84030076  -0.82315593
  -0.78873007  -0.77802219  -0.76301151  -0.73361581  -0.71220727
  -0.70345081  -0.69014538  -0.6576714   -0.6370064   -0.60690194
  -0.60014592  -0.56431185  -0.55394876  -0.5469149   -0.51716863
  -0.50544029  -0.49310547  -0.47421171  -0.46651323  -0.45655787
  -0.43818175  -0.43448307  -0.41376449  -0.39896216  -0.39210242
  -0.3804756   -0.37819787  -0.36606745  -0.36086435  -0.3553476
  -0.34963474  -0.34654024  -0.3310873   -0.32233086  -0.31429865
  -0.29847045  -0.29400703  -0.28143253  -0.27922184  -0.2596442
  -0.25680324  -0.23767443  -0.214802    -0.19969535  -0.18287967
  -0.16546103  -0.14350913  -0.10681436  -0.02847578   0.0311027
   0.05187748   0.0839976    0.09487777   0.11396017   0.13930998
   0.16675432   0.21112922   0.23743197   0.24284987   0.27120393
   0.28732925   0.29452524   0.29878753   0.32332452   0.33046283
   0.34399866   0.36298569   0.36894054   0.37476514   0.3852855
   0.40017168   0.41437749   0.42337843   0.44518831   0.44892651
   0.45922753   0.47908118   0.4802414    0.50226114   0.52360026
   0.53778307   0.54912077   0.57114718   0.59696987   0.61486232
   0.620854     0.65036476   0.69207453   0.6992007    0.72927116
   0.7796735    0.81073349   0.82384055   0.84220494   0.88767831
   0.90344064   0.93518512   1.01870041   1.50219673]
nelec by numeric integration = 146.00000016177455
    CPU time for vxc     39.66 sec, wall time     16.44 sec
E1 = -4100.630199156755  Ecoul = 1894.8282840845643  Exc = -124.70756602569023
cycle= 3 E= -835.304035661052  delta_E= -0.0286  |g|= 0.151  |ddm|= 0.686
    CPU time for cycle= 3     40.05 sec, wall time     16.50 sec
  HOMO = -0.111159838069531  LUMO = -0.0341133226518443
  mo_energy =
[-10.06695622 -10.05266659 -10.043032   -10.04085076 -10.03547908
 -10.03326806 -10.03255505 -10.03154937 -10.03029864 -10.02733337
 -10.026929   -10.0216266  -10.0211932  -10.01995949 -10.01947486
 -10.01809245 -10.01377461 -10.01211363 -10.00933244 -10.00325747
  -9.99928717  -9.98901469  -0.86537021  -0.85202025  -0.83280001
  -0.78564036  -0.77407738  -0.76674909  -0.73511234  -0.71729967
  -0.70776454  -0.69515687  -0.65706876  -0.64359985  -0.60569529
  -0.60137588  -0.57232469  -0.56098197  -0.55149572  -0.51407158
  -0.50597774  -0.49770055  -0.47229043  -0.46843363  -0.46026548
  -0.44106408  -0.43612121  -0.42180502  -0.40287459  -0.39482523
  -0.38686179  -0.38254346  -0.36973579  -0.36232383  -0.35835997
  -0.35200056  -0.34283922  -0.33958437  -0.32772381  -0.3184509
  -0.29575064  -0.29031452  -0.28631416  -0.28424076  -0.26520535
  -0.25564096  -0.24726435  -0.21833174  -0.20566311  -0.18659829
  -0.17103747  -0.13700118  -0.11115984  -0.03411332   0.02771012
   0.04961336   0.08003153   0.08772464   0.11997561   0.13416682
   0.16491916   0.21576201   0.23320295   0.24360922   0.26846073
   0.28420868   0.28912267   0.29965795   0.30782379   0.32550882
   0.34431146   0.36210696   0.36872981   0.37192119   0.38645964
   0.39332174   0.40925814   0.42630935   0.4386335    0.44308453
   0.45138744   0.46966119   0.48498767   0.49943482   0.51982001
   0.53260747   0.5426236    0.56098781   0.60388504   0.60779712
   0.61405322   0.64154774   0.6889349    0.70513576   0.73114556
   0.78929996   0.80393961   0.81006746   0.83643597   0.89111133
   0.89784734   0.92576404   1.02144812   1.50623358]
nelec by numeric integration = 146.00000017435352
    CPU time for vxc     39.18 sec, wall time     16.27 sec
E1 = -4100.856691141772  Ecoul = 1895.0525370331295  Exc = -124.71066906678796
cycle= 4 E= -835.309377738601  delta_E= -0.00534  |g|= 0.0969  |ddm|= 0.435
    CPU time for cycle= 4     39.55 sec, wall time     16.33 sec
  HOMO = -0.111844592645939  LUMO = -0.034578747183972
  mo_energy =
[-10.0675879  -10.05187377 -10.04222711 -10.03950949 -10.03514711
 -10.03434805 -10.03104834 -10.02989551 -10.02616988 -10.02365013
 -10.02288363 -10.02184435 -10.02073389 -10.01880748 -10.01847878
 -10.01687704 -10.01382968 -10.01254005 -10.00958898 -10.00823428
 -10.00687147 -10.00580462  -0.86568647  -0.84883228  -0.82942381
  -0.79064631  -0.77506693  -0.76479515  -0.7361676   -0.71373712
  -0.71075028  -0.69443335  -0.65952645  -0.64344832  -0.60792978
  -0.60199735  -0.56902879  -0.55893371  -0.55052296  -0.51579894
  -0.50520675  -0.49661673  -0.47656879  -0.46884106  -0.4592817
  -0.44062994  -0.43688784  -0.41916972  -0.39916573  -0.39592344
  -0.38517769  -0.38222935  -0.36749836  -0.36209085  -0.36023137
  -0.35495588  -0.34428473  -0.33718905  -0.32633049  -0.31644935
  -0.30051882  -0.28941857  -0.28655936  -0.28306118  -0.26607404
  -0.25719113  -0.24592314  -0.21960113  -0.20416208  -0.18844685
  -0.17086598  -0.14077148  -0.11184459  -0.03457875   0.02715939
   0.04911307   0.07953344   0.08682811   0.11597078   0.13336084
   0.16357725   0.21499955   0.23575322   0.2456951    0.27018461
   0.28710816   0.28857553   0.29416958   0.31168198   0.32823815
   0.34532861   0.36306941   0.36560866   0.37183641   0.38335116
   0.39474013   0.40993635   0.42573673   0.4411995    0.44345389
   0.45353922   0.47293911   0.47822781   0.49985125   0.5211332
   0.5342437    0.54449676   0.56435861   0.59751006   0.61108193
   0.61497194   0.64365985   0.68754165   0.69906258   0.72706821
   0.78011897   0.80846084   0.81506619   0.8396193    0.89370123
   0.9003412    0.92812737   1.01554855   1.50505556]
nelec by numeric integration = 146.00000015379675
    CPU time for vxc     38.52 sec, wall time     16.03 sec
E1 = -4100.647048464489  Ecoul = 1894.840452288531  Exc = -124.71166281169656
cycle= 5 E= -835.312813550826  delta_E= -0.00344  |g|= 0.0376  |ddm|= 0.241
    CPU time for cycle= 5     38.82 sec, wall time     16.09 sec
  HOMO = -0.111763902337508  LUMO = -0.0343371389791382
  mo_energy =
[-10.06424896 -10.04924728 -10.04132818 -10.03929737 -10.03740427
 -10.03613973 -10.03326435 -10.02806388 -10.02519172 -10.02345277
 -10.02265255 -10.02150191 -10.01993981 -10.01904999 -10.01857102
 -10.01817794 -10.0131605  -10.01281232 -10.00962307 -10.00876833
 -10.00625604 -10.0040581   -0.86583047  -0.84830447  -0.82913405
  -0.78901474  -0.77535285  -0.76586008  -0.73636672  -0.71382705
  -0.71051572  -0.69399794  -0.65837989  -0.64322986  -0.60728372
  -0.60169174  -0.56964379  -0.55847699  -0.55080283  -0.51592424
  -0.50594027  -0.49604409  -0.47509186  -0.46875305  -0.45928838
  -0.44064113  -0.43693591  -0.41910498  -0.39896846  -0.39576989
  -0.38506549  -0.38205879  -0.36844514  -0.36218612  -0.35999442
  -0.35406979  -0.34524909  -0.3369376   -0.32633908  -0.3180259
  -0.29948192  -0.29025209  -0.28617115  -0.28354735  -0.26554811
  -0.25732089  -0.24593781  -0.21923233  -0.2043193   -0.18847386
  -0.17052796  -0.14147032  -0.1117639   -0.03433714   0.0275606
   0.04920312   0.07955984   0.08744058   0.11594641   0.13379543
   0.16382043   0.21388072   0.23467284   0.24347943   0.26952965
   0.28711512   0.28956794   0.29515345   0.31231737   0.32750975
   0.34454583   0.36377523   0.36639112   0.37143645   0.3834651
   0.3946656    0.41038505   0.42465285   0.44142709   0.44355087
   0.45310605   0.47352773   0.47997727   0.49951007   0.52074913
   0.53456959   0.5429559    0.56501216   0.59845141   0.61068817
   0.61499785   0.6432723    0.68784336   0.70034245   0.72763063
   0.78228322   0.80831369   0.81456595   0.83803789   0.89236372
   0.89942286   0.92927706   1.01810551   1.50677809]
nelec by numeric integration = 146.00000016033815
    CPU time for vxc     38.83 sec, wall time     16.14 sec
E1 = -4100.771788333404  Ecoul = 1894.9630036940785  Exc = -124.71001540116384
cycle= 6 E= -835.313354603661  delta_E= -0.000541  |g|= 0.0101  |ddm|= 0.0761
    CPU time for cycle= 6     39.43 sec, wall time     16.24 sec
  HOMO = -0.111238208619051  LUMO = -0.0337088675063149
  mo_energy =
[-10.06397161 -10.04897227 -10.03997939 -10.03997445 -10.03672938
 -10.03539222 -10.03191139 -10.02786055 -10.0245264  -10.02241906
 -10.021718   -10.02088094 -10.01928435 -10.01871371 -10.01795063
 -10.01611397 -10.01172289 -10.01121158 -10.01024939 -10.00954816
 -10.00392166 -10.00388581  -0.8651881   -0.84786146  -0.82872269
  -0.78879687  -0.77484096  -0.76516473  -0.73560271  -0.71344099
  -0.70999075  -0.69366096  -0.65803193  -0.64278306  -0.60695591
  -0.60126852  -0.56914558  -0.55812842  -0.55032387  -0.51534124
  -0.50543533  -0.4957969   -0.4749229   -0.46833267  -0.45886782
  -0.44025081  -0.4365227   -0.41875939  -0.39874152  -0.39524494
  -0.38459136  -0.38161263  -0.36788245  -0.36154387  -0.35954012
  -0.35367952  -0.3447922   -0.33656831  -0.32588901  -0.31731032
  -0.29932313  -0.28947775  -0.28590065  -0.28318729  -0.26509722
  -0.25689617  -0.24548588  -0.21865381  -0.20383143  -0.1879119
  -0.17010693  -0.14079309  -0.11123821  -0.03370887   0.02805613
   0.04969831   0.08013722   0.08789357   0.11662214   0.13441291
   0.16421957   0.21471877   0.23526524   0.24416021   0.27013384
   0.28751255   0.28993117   0.29535609   0.31268844   0.32804588
   0.3450926    0.36418519   0.36669817   0.37199785   0.3839696
   0.395337     0.41073695   0.42530593   0.44166542   0.44399479
   0.4537927    0.47363885   0.48013679   0.50012719   0.52140553
   0.53500509   0.54370278   0.56509616   0.59915471   0.61115636
   0.61550748   0.64396226   0.68855498   0.70082084   0.72826843
   0.78257343   0.80861488   0.81507887   0.83866441   0.89298505
   0.8998494    0.92959069   1.01763741   1.5071848 ]
nelec by numeric integration = 146.00000015965037
    CPU time for vxc     38.72 sec, wall time     16.15 sec
E1 = -4100.6893180709285  Ecoul = 1894.8793914731841  Exc = -124.7089083128516
cycle= 7 E= -835.313389473767  delta_E= -3.49e-05  |g|= 0.00322  |ddm|= 0.0186
    CPU time for cycle= 7     39.12 sec, wall time     16.21 sec
  HOMO = -0.111232509110776  LUMO = -0.0336607346093789
  mo_energy =
[-10.06426639 -10.04921096 -10.03989025 -10.03934205 -10.03661483
 -10.03471597 -10.03184064 -10.02793783 -10.02467433 -10.02197663
 -10.02168231 -10.02112952 -10.01935094 -10.01906156 -10.01787152
 -10.01626011 -10.01171951 -10.01128019 -10.00973302 -10.00937271
 -10.00427286 -10.00384057  -0.86519132  -0.8479163   -0.82875688
  -0.7885963   -0.77479157  -0.76513215  -0.73558933  -0.71339228
  -0.70994857  -0.69365328  -0.6579702   -0.6427798   -0.60687058
  -0.60122974  -0.56914013  -0.55816509  -0.55030987  -0.51535626
  -0.50538627  -0.49583492  -0.47480124  -0.46829983  -0.45889736
  -0.44021737  -0.4364811   -0.41883815  -0.39878818  -0.39523871
  -0.38463547  -0.38158983  -0.36781589  -0.36156674  -0.35955619
  -0.35366153  -0.34473017  -0.33661148  -0.32590979  -0.31731834
  -0.29911868  -0.28946584  -0.28594069  -0.28309738  -0.26506121
  -0.25679627  -0.24550681  -0.21863754  -0.20378462  -0.1878586
  -0.1700862   -0.14067772  -0.11123251  -0.03366073   0.02809922
   0.04978026   0.08017892   0.08793331   0.116747     0.13442545
   0.164322     0.21471432   0.23529294   0.24423271   0.27006514
   0.28749193   0.28993668   0.29551544   0.31260213   0.32803968
   0.34514421   0.36417737   0.36671628   0.37204369   0.38402022
   0.39530792   0.41077649   0.42533555   0.44156419   0.44403036
   0.4537036    0.47356942   0.48027622   0.50015804   0.52141088
   0.53499453   0.54374948   0.56502518   0.59918714   0.61116084
   0.61546939   0.64397847   0.68860391   0.70089539   0.72831616
   0.78265579   0.80864985   0.81509625   0.83873552   0.89308977
   0.8998883    0.92949208   1.01797153   1.50706607]
nelec by numeric integration = 146.00000016035025
    CPU time for vxc     38.97 sec, wall time     16.13 sec
E1 = -4100.698366524159  Ecoul = 1894.8885009128014  Exc = -124.70897312998845
cycle= 8 E= -835.313393304517  delta_E= -3.83e-06  |g|= 0.000604  |ddm|= 0.00586
    CPU time for cycle= 8     39.33 sec, wall time     16.20 sec
  HOMO = -0.111254249860827  LUMO = -0.0336572705350684
  mo_energy =
[-10.06429306 -10.04926106 -10.04006497 -10.03935553 -10.03665741
 -10.03490169 -10.03185333 -10.02794327 -10.02467879 -10.02200919
 -10.02160195 -10.02126775 -10.01924908 -10.01905856 -10.01799098
 -10.01628534 -10.01162063 -10.0112916  -10.00981566 -10.00933698
 -10.00414203 -10.00384136  -0.86521694  -0.84792562  -0.82877321
  -0.78861893  -0.77479711  -0.76515822  -0.73561277  -0.71340415
  -0.70995173  -0.69367412  -0.65798197  -0.64278991  -0.60687527
  -0.60126739  -0.56915877  -0.55818622  -0.55032189  -0.51534175
  -0.50539598  -0.495848    -0.47481858  -0.46831204  -0.45891386
  -0.44022578  -0.43648991  -0.41886103  -0.39878234  -0.39526236
  -0.38466056  -0.38160821  -0.36784567  -0.36156229  -0.35957138
  -0.35366557  -0.34470734  -0.33662873  -0.32593278  -0.31730093
  -0.29914247  -0.28945257  -0.28593933  -0.28310723  -0.26509377
  -0.25681482  -0.24552405  -0.21865657  -0.2038032   -0.18786281
  -0.1701118   -0.14066067  -0.11125425  -0.03365727   0.02806182
   0.04977139   0.0801573    0.08792935   0.11675612   0.1343917
   0.16430227   0.21473298   0.23528437   0.24423753   0.27005719
   0.28748388   0.28992739   0.2955019    0.31261748   0.32800135
   0.34511711   0.36418555   0.36672228   0.37200517   0.38402833
   0.39526099   0.41076052   0.42535526   0.44156729   0.44402619
   0.45368893   0.47357473   0.48025973   0.50011139   0.52141405
   0.53498654   0.54371888   0.56502611   0.59918744   0.61112647
   0.61543744   0.64392515   0.68856256   0.70088347   0.72829109
   0.78265502   0.80867      0.81507366   0.83873061   0.89307189
   0.89987754   0.92949269   1.01794342   1.50703175]
nelec by numeric integration = 146.00000016034033
    CPU time for vxc     38.37 sec, wall time     15.87 sec
E1 = -4100.700005306665  Ecoul = 1894.890181337796  Exc = -124.7090148835432
cycle= 9 E= -835.313393415583  delta_E= -1.11e-07  |g|= 0.000323  |ddm|= 0.00139
    CPU time for cycle= 9     38.75 sec, wall time     15.93 sec
  HOMO = -0.111263463615877  LUMO = -0.0336550007974901
  mo_energy =
[-10.06426321 -10.04922259 -10.04000075 -10.03939153 -10.03664866
 -10.0348773  -10.031858   -10.02796399 -10.02468149 -10.02202457
 -10.02165162 -10.02119137 -10.0192998  -10.01904989 -10.01792474
 -10.01627749 -10.0116579  -10.01132063 -10.00982701 -10.00937344
 -10.00420285 -10.00388363  -0.86520633  -0.84792961  -0.82877707
  -0.78863069  -0.77479843  -0.76514762  -0.73560732  -0.7134103
  -0.70996348  -0.69367666  -0.65798657  -0.64279628  -0.60688601
  -0.60125993  -0.56915573  -0.55818544  -0.55032124  -0.51535137
  -0.50539234  -0.49585088  -0.47482495  -0.46831272  -0.45891064
  -0.44023228  -0.43648755  -0.41884901  -0.39879313  -0.39525175
  -0.38465506  -0.38160986  -0.36783132  -0.36156864  -0.35957059
  -0.35367217  -0.34471386  -0.3366299   -0.32592927  -0.31730193
  -0.29913876  -0.28946338  -0.28594973  -0.28311112  -0.26508615
  -0.25681262  -0.24551905  -0.21865594  -0.20380721  -0.1878709
  -0.17011257  -0.14066268  -0.11126346  -0.033655     0.02806997
   0.04976282   0.08015773   0.08792261   0.11675827   0.13440053
   0.16429888   0.21471993   0.23528296   0.24424394   0.27006608
   0.28748131   0.28992417   0.2954979    0.31260588   0.32801369
   0.34513499   0.36417512   0.3667111    0.37202404   0.38402769
   0.39528188   0.41076143   0.42535311   0.44156415   0.44402486
   0.45369808   0.47356218   0.48025084   0.50012717   0.52140229
   0.53497624   0.54372277   0.56501147   0.59917224   0.61113499
   0.61544393   0.64394411   0.68857398   0.70087676   0.72829287
   0.78263427   0.80865109   0.81507703   0.83872573   0.89306522
   0.89986723   0.92947949   1.01791967   1.50705605]
nelec by numeric integration = 146.00000016035332
    CPU time for vxc     37.71 sec, wall time     15.72 sec
E1 = -4100.699836764889  Ecoul = 1894.8900284992671  Exc = -124.70903062510808
cycle= 10 E= -835.313393453902  delta_E= -3.83e-08  |g|= 0.000123  |ddm|= 0.000715
    CPU time for cycle= 10     38.27 sec, wall time     15.80 sec
  HOMO = -0.111262831582352  LUMO = -0.033652777140309
  mo_energy =
[-10.06426938 -10.04922708 -10.04000392 -10.03938672 -10.03664802
 -10.03486718 -10.03186705 -10.02795855 -10.02469079 -10.02202317
 -10.02164921 -10.02121141 -10.01929744 -10.01905522 -10.01795347
 -10.01626713 -10.01166648 -10.01130585 -10.00981701 -10.00937682
 -10.00419239 -10.00385686  -0.8652092   -0.84792989  -0.82877723
  -0.78862842  -0.77479989  -0.76515215  -0.73560927  -0.71340714
  -0.70996147  -0.69367587  -0.65798461  -0.64279418  -0.60688507
  -0.60126163  -0.56915459  -0.55818443  -0.5503213   -0.51535009
  -0.50539434  -0.49584978  -0.47482543  -0.46831376  -0.45891052
  -0.44023158  -0.4364891   -0.41885127  -0.39878878  -0.39525493
  -0.38465567  -0.38160735  -0.36783439  -0.36156656  -0.35957041
  -0.35367017  -0.34471397  -0.33663012  -0.32593096  -0.3173025
  -0.29914383  -0.28946254  -0.28594715  -0.28311225  -0.26508804
  -0.25681423  -0.24552047  -0.21865776  -0.2038052   -0.18786942
  -0.17011201  -0.14067046  -0.11126283  -0.03365278   0.0280692
   0.04976351   0.08015793   0.08792296   0.11674874   0.13439853
   0.16429862   0.21472057   0.23528235   0.24424047   0.27006342
   0.28748115   0.28992352   0.29549617   0.31260761   0.32801262
   0.34512847   0.36417834   0.36671446   0.37201829   0.3840246
   0.39527715   0.41076016   0.4253518    0.44156452   0.44402499
   0.45369769   0.47356636   0.48025363   0.50012524   0.52140739
   0.5349804    0.54372467   0.5650183    0.59917716   0.61113408
   0.61544301   0.64394165   0.68857037   0.70087777   0.72829184
   0.78264113   0.80865193   0.81507632   0.83872422   0.8930643
   0.89986737   0.9294795    1.01792337   1.50705071]
nelec by numeric integration = 146.00000016035204
    CPU time for vxc     38.25 sec, wall time     15.89 sec
E1 = -4100.699695948526  Ecoul = 1894.889881032376  Exc = -124.70902398034055
cycle= 11 E= -835.313393459662  delta_E= -5.76e-09  |g|= 4.64e-05  |ddm|= 0.000265
    CPU time for cycle= 11     38.84 sec, wall time     15.97 sec
  HOMO = -0.11126469858833  LUMO = -0.0336521977921895
  mo_energy =
[-10.06427625 -10.0492364  -10.0400035  -10.03938737 -10.03664609
 -10.03487263 -10.03186522 -10.02794896 -10.02467856 -10.0220273
 -10.02163946 -10.02120584 -10.01929057 -10.01904475 -10.0179489
 -10.01626877 -10.01166664 -10.01130991 -10.00982199 -10.00936659
 -10.00420357 -10.00386     -0.86521411  -0.84792459  -0.82877155
  -0.78863032  -0.77480259  -0.7651516   -0.73560898  -0.71340593
  -0.7099614   -0.69367253  -0.65798594  -0.64279266  -0.60688647
  -0.60126051  -0.56915354  -0.55818097  -0.55032031  -0.51535274
  -0.505395    -0.49584646  -0.47482595  -0.46831274  -0.45890942
  -0.44023007  -0.43648972  -0.41884827  -0.39878569  -0.39525891
  -0.38465237  -0.38160696  -0.36783507  -0.36156908  -0.35956789
  -0.35367058  -0.34471768  -0.33662494  -0.32592733  -0.31730355
  -0.29914564  -0.28946557  -0.2859435   -0.28311131  -0.26508628
  -0.25681494  -0.24551764  -0.21865613  -0.20380425  -0.18786873
  -0.17010956  -0.14067497  -0.1112647   -0.0336522    0.02807087
   0.0497632    0.0801588    0.08792504   0.11674481   0.13439975
   0.16429883   0.2147189    0.23528359   0.24423799   0.27006501
   0.28748483   0.2899254    0.29549483   0.31261326   0.32801454
   0.34512714   0.36417696   0.36671492   0.37201576   0.38402249
   0.39527969   0.41076115   0.42534976   0.44156927   0.44402447
   0.45369894   0.4735711    0.48025053   0.50012502   0.52140688
   0.53498259   0.54372392   0.56502236   0.59917327   0.6111368
   0.61544683   0.64394321   0.68857139   0.70087585   0.72829084
   0.78263683   0.80865517   0.8150795    0.83872474   0.89306525
   0.89987127   0.92948856   1.0179225    1.50704399]
nelec by numeric integration = 146.00000016035835
    CPU time for vxc     38.30 sec, wall time     16.05 sec
E1 = -4100.699659268084  Ecoul = 1894.8898423182238  Exc = -124.70902194755953
cycle= 12 E= -835.313393460591  delta_E= -9.3e-10  |g|= 1.87e-05  |ddm|= 0.000124
    CPU time for cycle= 12     38.65 sec, wall time     16.10 sec
  HOMO = -0.111263585886834  LUMO = -0.0336508987207929
  mo_energy =
[-10.06427078 -10.04923056 -10.04000389 -10.03938702 -10.03664507
 -10.03487191 -10.03186508 -10.02795349 -10.02468303 -10.02202437
 -10.02164168 -10.0212047  -10.01928808 -10.01905022 -10.01794624
 -10.01626514 -10.01166257 -10.0113107  -10.00982078 -10.00936977
 -10.00419983 -10.0038564   -0.8652106   -0.84792553  -0.82877296
  -0.78862944  -0.77480026  -0.76515027  -0.73560847  -0.71340542
  -0.70996123  -0.69367337  -0.65798491  -0.64279251  -0.60688543
  -0.60126021  -0.56915285  -0.55818167  -0.55031984  -0.51535123
  -0.5053939   -0.49584732  -0.47482531  -0.46831244  -0.45890916
  -0.44022985  -0.43648881  -0.41884823  -0.3987861   -0.39525599
  -0.38465299  -0.38160657  -0.36783365  -0.36156843  -0.35956812
  -0.3536702   -0.34471606  -0.33662637  -0.32592807  -0.31730228
  -0.299144    -0.28946379  -0.28594438  -0.28311034  -0.26508593
  -0.25681398  -0.24551773  -0.2186562   -0.20380371  -0.18786843
  -0.17010985  -0.14067153  -0.11126359  -0.0336509    0.0280711
   0.04976397   0.0801592    0.08792492   0.11674854   0.13440008
   0.16429957   0.2147202    0.23528415   0.24423943   0.27006479
   0.28748404   0.28992539   0.295496     0.31261205   0.32801454
   0.34512907   0.36417739   0.36671515   0.37201823   0.3840242
   0.39527975   0.41076181   0.42535103   0.44156765   0.44402575
   0.45369922   0.47356977   0.48025128   0.50012617   0.52140776
   0.53498232   0.54372512   0.56502128   0.59917406   0.61113682
   0.61544577   0.64394391   0.68857211   0.70087719   0.72829206
   0.78263788   0.80865569   0.81508023   0.83872618   0.8930657
   0.89987037   0.92948504   1.01792274   1.50704869]
nelec by numeric integration = 146.0000001603601
    CPU time for vxc     38.54 sec, wall time     16.10 sec
E1 = -4100.699607946308  Ecoul = 1894.8897908196057  Exc = -124.70902177082225
cycle= 13 E= -835.313393460696  delta_E= -1.05e-10  |g|= 1.28e-05  |ddm|= 4.83e-05
    CPU time for cycle= 13     39.08 sec, wall time     16.19 sec
  HOMO = -0.11126406256724  LUMO = -0.0336513716261693
  mo_energy =
[-10.06427178 -10.04923129 -10.04000407 -10.03938651 -10.03664638
 -10.03487191 -10.03186536 -10.02795309 -10.0246822  -10.02202517
 -10.02164282 -10.02120588 -10.01929096 -10.01904866 -10.01794788
 -10.01626757 -10.01166429 -10.01130943 -10.00981997 -10.00936954
 -10.00419863 -10.00385935  -0.86521116  -0.84792607  -0.8287733
  -0.78862935  -0.77480078  -0.76515105  -0.7356086   -0.71340614
  -0.70996128  -0.69367356  -0.65798502  -0.64279297  -0.60688557
  -0.60126048  -0.56915356  -0.55818205  -0.55032026  -0.51535136
  -0.50539417  -0.49584753  -0.47482533  -0.46831271  -0.45890956
  -0.44023024  -0.43648902  -0.41884896  -0.39878671  -0.39525645
  -0.38465331  -0.38160692  -0.36783425  -0.36156831  -0.35956851
  -0.35367021  -0.34471612  -0.33662663  -0.3259283   -0.31730267
  -0.2991441   -0.28946396  -0.2859447   -0.28311102  -0.26508639
  -0.25681422  -0.24551826  -0.21865628  -0.20380431  -0.18786862
  -0.17011019  -0.14067169  -0.11126406  -0.03365137   0.02807072
   0.04976361   0.08015882   0.08792471   0.11674831   0.13439975
   0.16429916   0.21471998   0.23528362   0.24423914   0.27006468
   0.28748376   0.28992515   0.29549593   0.31261144   0.32801408
   0.34512855   0.36417736   0.36671487   0.37201767   0.38402395
   0.39527935   0.41076137   0.42535092   0.44156755   0.44402524
   0.45369879   0.47356933   0.48025164   0.50012562   0.52140726
   0.53498187   0.54372442   0.56502069   0.59917456   0.61113616
   0.61544561   0.64394316   0.68857167   0.70087717   0.72829185
   0.78263845   0.80865462   0.81507908   0.83872522   0.89306527
   0.89987009   0.92948534   1.01792308   1.50704803]
nelec by numeric integration = 146.00000016036088
    CPU time for vxc     37.96 sec, wall time     15.89 sec
E1 = -4100.699660368987  Ecoul = 1894.8898439816896  Exc = -124.70902251027752
cycle= 14 E= -835.313393460746  delta_E= -5e-11  |g|= 5.16e-06  |ddm|= 2.74e-05
    CPU time for cycle= 14     38.42 sec, wall time     15.96 sec
  HOMO = -0.111264129813887  LUMO = -0.0336512600108449
  mo_energy =
[-10.06427312 -10.0492326  -10.04000328 -10.03938802 -10.03664463
 -10.03487193 -10.03186619 -10.02795283 -10.02468279 -10.02202462
 -10.0216411  -10.02120618 -10.01928903 -10.01904868 -10.01794805
 -10.0162643  -10.01166397 -10.01131088 -10.00982314 -10.00936955
 -10.00420159 -10.0038573   -0.86521185  -0.84792546  -0.82877281
  -0.78863033  -0.77480108  -0.76515067  -0.73560882  -0.71340556
  -0.70996151  -0.69367345  -0.65798559  -0.64279269  -0.60688609
  -0.60126063  -0.56915288  -0.55818168  -0.55032004  -0.51535179
  -0.50539419  -0.49584739  -0.47482612  -0.46831275  -0.45890938
  -0.44023015  -0.4364891   -0.41884837  -0.39878595  -0.39525708
  -0.38465301  -0.38160678  -0.36783389  -0.36156869  -0.35956817
  -0.35367061  -0.3447163   -0.33662622  -0.32592812  -0.31730223
  -0.29914492  -0.28946439  -0.28594432  -0.28311075  -0.2650863
  -0.25681443  -0.24551776  -0.2186565   -0.20380394  -0.18786864
  -0.17011008  -0.14067256  -0.11126413  -0.03365126   0.02807069
   0.04976354   0.08015889   0.08792475   0.11674725   0.1343997
   0.16429905   0.21471972   0.23528404   0.2442395    0.2700649
   0.28748411   0.28992501   0.29549517   0.31261241   0.32801456
   0.34512854   0.36417715   0.36671501   0.37201739   0.38402357
   0.39527962   0.41076146   0.42535086   0.44156795   0.44402538
   0.45369925   0.47356998   0.48025052   0.50012572   0.52140754
   0.5349822    0.54372493   0.56502144   0.59917339   0.61113678
   0.61544587   0.64394371   0.68857156   0.70087621   0.72829125
   0.78263681   0.80865546   0.81508013   0.83872582   0.8930654
   0.89987035   0.92948545   1.01792184   1.50704687]
nelec by numeric integration = 146.00000016035818
    CPU time for vxc     38.42 sec, wall time     15.88 sec
E1 = -4100.699621633142  Ecoul = 1894.8898057458186  Exc = -124.70902301012246
Extra cycle  E= -835.313393460617  delta_E= 1.29e-10  |g|= 1.76e-05  |ddm|= 4.52e-05
    CPU time for scf_cycle    633.42 sec, wall time    260.09 sec
    CPU time for SCF    633.42 sec, wall time    260.09 sec
converged SCF energy = -835.313393460617
nelec by numeric integration = 146.00000016035818
    CPU time for vxc     38.51 sec, wall time     16.01 sec
 ** Mulliken pop  **
pop of  0 C 1s            1.99142
pop of  0 C 2s            1.17226
pop of  0 C 2px           0.94767
pop of  0 C 2py           0.94495
pop of  0 C 2pz           0.92834
pop of  1 C 1s            1.99305
pop of  1 C 2s            0.98135
pop of  1 C 2px           1.01613
pop of  1 C 2py           1.05542
pop of  1 C 2pz           0.97795
pop of  2 C 1s            1.99087
pop of  2 C 2s            1.17600
pop of  2 C 2px           0.99407
pop of  2 C 2py           0.94356
pop of  2 C 2pz           0.97425
pop of  3 C 1s            1.99101
pop of  3 C 2s            1.11929
pop of  3 C 2px           1.01195
pop of  3 C 2py           0.97322
pop of  3 C 2pz           0.97868
pop of  4 C 1s            1.99105
pop of  4 C 2s            1.15759
pop of  4 C 2px           0.93950
pop of  4 C 2py           0.92403
pop of  4 C 2pz           0.97677
pop of  5 C 1s            1.99312
pop of  5 C 2s            0.95567
pop of  5 C 2px           1.02610
pop of  5 C 2py           1.09430
pop of  5 C 2pz           1.00074
pop of  6 C 1s            1.99170
pop of  6 C 2s            1.08617
pop of  6 C 2px           1.05385
pop of  6 C 2py           1.05426
pop of  6 C 2pz           0.98935
pop of  7 C 1s            1.99123
pop of  7 C 2s            1.18451
pop of  7 C 2px           0.96702
pop of  7 C 2py           1.00739
pop of  7 C 2pz           0.95575
pop of  8 C 1s            1.99121
pop of  8 C 2s            1.15577
pop of  8 C 2px           0.97451
pop of  8 C 2py           0.94530
pop of  8 C 2pz           0.94223
pop of  9 C 1s            1.99078
pop of  9 C 2s            1.08948
pop of  9 C 2px           1.01368
pop of  9 C 2py           0.96415
pop of  9 C 2pz           0.92203
pop of  10 C 1s           1.99130
pop of  10 C 2s           1.22241
pop of  10 C 2px          0.96228
pop of  10 C 2py          0.91684
pop of  10 C 2pz          0.95506
pop of  11 C 1s           1.99111
pop of  11 C 2s           1.17753
pop of  11 C 2px          0.97724
pop of  11 C 2py          0.93580
pop of  11 C 2pz          0.96475
pop of  12 C 1s           1.99055
pop of  12 C 2s           1.11885
pop of  12 C 2px          0.99069
pop of  12 C 2py          0.96295
pop of  12 C 2pz          0.93682
pop of  13 C 1s           1.99056
pop of  13 C 2s           1.13107
pop of  13 C 2px          0.99563
pop of  13 C 2py          0.94945
pop of  13 C 2pz          0.94369
pop of  14 C 1s           1.99051
pop of  14 C 2s           1.09066
pop of  14 C 2px          1.02253
pop of  14 C 2py          0.98842
pop of  14 C 2pz          1.01851
pop of  15 C 1s           1.99103
pop of  15 C 2s           1.16808
pop of  15 C 2px          0.97865
pop of  15 C 2py          0.94022
pop of  15 C 2pz          0.99068
pop of  16 C 1s           1.99119
pop of  16 C 2s           1.15332
pop of  16 C 2px          0.97355
pop of  16 C 2py          0.94119
pop of  16 C 2pz          0.93691
pop of  17 C 1s           1.99134
pop of  17 C 2s           1.20836
pop of  17 C 2px          0.95341
pop of  17 C 2py          0.91751
pop of  17 C 2pz          0.91033
pop of  18 C 1s           1.99122
pop of  18 C 2s           1.20531
pop of  18 C 2px          0.96433
pop of  18 C 2py          0.92871
pop of  18 C 2pz          0.98146
pop of  19 C 1s           1.99090
pop of  19 C 2s           1.10876
pop of  19 C 2px          1.01507
pop of  19 C 2py          0.96080
pop of  19 C 2pz          0.99051
pop of  20 C 1s           1.99083
pop of  20 C 2s           1.10546
pop of  20 C 2px          1.01218
pop of  20 C 2py          0.98793
pop of  20 C 2pz          0.97786
pop of  21 C 1s           1.99047
pop of  21 C 2s           1.04320
pop of  21 C 2px          1.01985
pop of  21 C 2py          1.04635
pop of  21 C 2pz          1.03159
pop of  22 H 1s           0.92636
pop of  23 H 1s           0.95393
pop of  24 H 1s           0.95632
pop of  25 H 1s           0.98020
pop of  26 H 1s           0.86627
pop of  27 H 1s           0.88878
pop of  28 H 1s           0.91540
pop of  29 H 1s           0.94617
pop of  30 H 1s           0.90674
pop of  31 H 1s           0.91170
pop of  32 H 1s           0.91849
pop of  33 H 1s           0.92328
pop of  34 H 1s           0.91686
pop of  35 H 1s           0.89508
 ** Mulliken atomic charges  **
charge of    0C =      0.01537
charge of    1C =     -0.02390
charge of    2C =     -0.07877
charge of    3C =     -0.07414
charge of    4C =      0.01107
charge of    5C =     -0.06993
charge of    6C =     -0.17533
charge of    7C =     -0.10589
charge of    8C =     -0.00903
charge of    9C =      0.01988
charge of   10C =     -0.04788
charge of   11C =     -0.04643
charge of   12C =      0.00013
charge of   13C =     -0.01040
charge of   14C =     -0.11063
charge of   15C =     -0.06865
charge of   16C =      0.00385
charge of   17C =      0.01905
charge of   18C =     -0.07103
charge of   19C =     -0.06604
charge of   20C =     -0.07426
charge of   21C =     -0.13146
charge of   22H =      0.07364
charge of   23H =      0.04607
charge of   24H =      0.04368
charge of   25H =      0.01980
charge of   26H =      0.13373
charge of   27H =      0.11122
charge of   28H =      0.08460
charge of   29H =      0.05383
charge of   30H =      0.09326
charge of   31H =      0.08830
charge of   32H =      0.08151
charge of   33H =      0.07672
charge of   34H =      0.08314
charge of   35H =      0.10492
Dipole moment(X, Y, Z, Debye): -0.15313, -1.66155,  0.76503
nelec by numeric integration = 146.00000016035818
    CPU time for vxc     38.19 sec, wall time     15.98 sec
E1 = -4100.699621633142  Ecoul = 1894.8898057458182  Exc = -124.70902301012245
nelec by numeric integration = 146.00000016035818
    CPU time for vxc     38.24 sec, wall time     15.81 sec
E1 = -4100.699621633142  Ecoul = 1894.8898057458189  Exc = -124.70902301012245
