System: uname_result(system='Linux', node='cosmopc18', release='5.15.0-97-generic', version='#107-Ubuntu SMP Wed Feb 7 13:26:48 UTC 2024', machine='x86_64')  Threads 4
Python 3.11.8 (main, Feb 26 2024, 21:39:34) [GCC 11.2.0]
numpy 1.26.4  scipy 1.11.4
Date: Tue Apr  9 09:59:30 2024
PySCF version 2.3.0
PySCF path  /home/saade/miniconda3/envs/tutorial/lib/python3.11/site-packages/pyscf

[ENV] PYSCFAD_BACKEND torch
[CONFIG] conf_file None
[INPUT] verbose = 5
[INPUT] max_memory = 4000 
[INPUT] num. atoms = 36
[INPUT] num. electrons = 146
[INPUT] charge = 0
[INPUT] spin (= nelec alpha-beta = 2S) = 0
[INPUT] symmetry False subgroup None
[INPUT] Mole.unit = angstrom
[INPUT] Symbol           X                Y                Z      unit          X                Y                Z       unit  Magmom
[INPUT]  1 C      0.102911000000   3.743428000000   0.751246000000 AA    0.194473605205   7.074053687028   1.419649192175 Bohr   0.0
[INPUT]  2 C      0.089029000000   3.520724000000  -0.714022000000 AA    0.168240427144   6.653204120183  -1.349306026914 Bohr   0.0
[INPUT]  3 C     -0.191783000000   4.747050000000   1.497758000000 AA   -0.362417345347   8.970624399617   2.830352420876 Bohr   0.0
[INPUT]  4 C      0.166201000000   2.439697000000   1.389200000000 AA    0.314074371629   4.610359156923   2.625207532246 Bohr   0.0
[INPUT]  5 C      0.033329000000   4.863810000000  -1.444288000000 AA    0.062982682006   9.191268821921  -2.729308764996 Bohr   0.0
[INPUT]  6 C     -0.134622000000   2.382392000000  -1.250359000000 AA   -0.254398710341   4.502068401355  -2.362836067385 Bohr   0.0
[INPUT]  7 C      0.042870000000   5.931250000000  -0.896660000000 AA    0.081012558960  11.208438076327  -1.694441826853 Bohr   0.0
[INPUT]  8 C      0.011220000000   6.023179000000   0.728836000000 AA    0.021202727118  11.382158709232   1.377300429724 Bohr   0.0
[INPUT]  9 C     -0.018247000000   1.204566000000   0.799038000000 AA   -0.034481832595   2.276299838963   1.509962983120 Bohr   0.0
[INPUT] 10 C      0.033718000000   1.085371000000  -0.882615000000 AA    0.063717785468   2.051053933545  -1.667900623433 Bohr   0.0
[INPUT] 11 C      0.051271000000  -0.051626000000   1.458557000000 AA    0.096888148133  -0.097559000907   2.756273267067 Bohr   0.0
[INPUT] 12 C      0.074811000000   0.001855000000  -1.352306000000 AA    0.141372301105   0.003505441961  -2.555487976606 Bohr   0.0
[INPUT] 13 C      0.010585000000  -1.090562000000   0.782754000000 AA    0.020002751029  -2.060863501858   1.479190682908 Bohr   0.0
[INPUT] 14 C     -0.052542000000  -1.189349000000  -0.809327000000 AA   -0.099289990037  -2.247543876525  -1.529406375216 Bohr   0.0
[INPUT] 15 C     -0.024451000000  -2.356110000000   1.490777000000 AA   -0.046205693472  -4.452402619349   2.817160242801 Bohr   0.0
[INPUT] 16 C     -0.022662000000  -2.361017000000  -1.396598000000 AA   -0.042824973435  -4.461675505442  -2.639187726115 Bohr   0.0
[INPUT] 17 C     -0.147679000000  -3.746769000000   0.638128000000 AA   -0.279072864350  -7.080367262011   1.205887152416 Bohr   0.0
[INPUT] 18 C     -0.128654000000  -3.777259000000  -0.783269000000 AA   -0.243120824830  -7.137985011549  -1.480163891862 Bohr   0.0
[INPUT] 19 C      0.122441000000  -4.960939000000   1.336883000000 AA    0.231379956418  -9.374816030674   2.526342730587 Bohr   0.0
[INPUT] 20 C     -0.091972000000  -4.837943000000  -1.383693000000 AA   -0.173801891128  -9.142387276257  -2.614800810478 Bohr   0.0
[INPUT] 21 C     -0.021724000000  -6.067908000000   0.678054000000 AA   -0.041052410330 -11.466684269057   1.281336357666 Bohr   0.0
[INPUT] 22 C      0.084588000000  -6.063902000000  -0.636528000000 AA    0.159848153425 -11.459114026202  -1.202863590617 Bohr   0.0
[INPUT] 23 H     -0.034570000000   4.959259000000   2.474252000000 AA   -0.065327832126   9.371641290784   4.675658643157 Bohr   0.0
[INPUT] 24 H     -0.039962000000   2.492902000000   2.554757000000 AA   -0.075517235390   4.710902035380   4.827791044815 Bohr   0.0
[INPUT] 25 H      0.003371000000   5.068590000000  -2.600303000000 AA    0.006370266766   9.578246937709  -4.913860510885 Bohr   0.0
[INPUT] 26 H      0.170464000000   2.482215000000  -2.349464000000 AA    0.322130274098   4.690706532287  -4.439843499525 Bohr   0.0
[INPUT] 27 H     -0.008233000000   7.032763000000  -1.046911000000 AA   -0.015558115184  13.289995968975  -1.978375066795 Bohr   0.0
[INPUT] 28 H     -0.115180000000   7.124297000000   1.231495000000 AA   -0.217658655027  13.462970160060   2.327188273771 Bohr   0.0
[INPUT] 29 H     -0.094350000000  -0.181094000000   2.474100000000 AA   -0.178295659853  -0.342218062802   4.675371404786 Bohr   0.0
[INPUT] 30 H      0.009331000000   0.055116000000  -2.384816000000 AA    0.017633034468   0.104154145082  -4.506649097481 Bohr   0.0
[INPUT] 31 H     -0.178791000000  -2.280366000000   2.369684000000 AA   -0.337866023537  -4.309267203770   4.478053761764 Bohr   0.0
[INPUT] 32 H     -0.026340000000  -2.513073000000  -2.579810000000 AA   -0.049775386121  -4.749019701039  -4.875134353414 Bohr   0.0
[INPUT] 33 H     -0.098988000000  -4.770449000000   2.589849000000 AA   -0.187060209618  -9.014842101205   4.894105313979 Bohr   0.0
[INPUT] 34 H     -0.146559000000  -4.979395000000  -2.413132000000 AA   -0.276956371090  -9.409692816029  -4.560158582424 Bohr   0.0
[INPUT] 35 H      0.144433000000  -7.153287000000   1.209852000000 AA    0.272938813349 -13.517753320412   2.286288931257 Bohr   0.0
[INPUT] 36 H      0.019283000000  -7.077230000000  -1.248090000000 AA    0.036439588860 -13.374026420556  -2.358548278808 Bohr   0.0
[INPUT] ---------------- BASIS SET ---------------- 
[INPUT] l, kappa, [nprim/nctr], expnt,             c_1 c_2 ...
[INPUT] H
[INPUT] 0    0    [3    /1   ]  3.42525091        0.15432897
                                0.62391373        0.53532814
                                0.1688554         0.44463454
[INPUT] C
[INPUT] 0    0    [3    /1   ]  71.616837         0.15432897
                                13.045096         0.53532814
                                3.5305122         0.44463454
[INPUT] 0    0    [3    /1   ]  2.9412494         -0.09996723
                                0.6834831         0.39951283
                                0.2222899         0.70011547
[INPUT] 1    0    [3    /1   ]  2.9412494         0.15591627
                                0.6834831         0.60768372
                                0.2222899         0.39195739

nuclear repulsion = 1504.11840064439
number of shells = 80
number of NR pGTOs = 372
number of NR cGTOs = 124
basis = sto3g
ecp = {}
CPU time:      2564.31
atom C rad-grids = 99, ang-grids = [ 50  50  50  50  50  50  50  50  50  50  50  50  50  50  50  50  50  50
  50  50  50  50  50  50  50  50  50  50  50  50  50  86  86  86  86  86
  86  86  86  86  86  86  86 434 434 434 434 434 434 434 434 434 590 590
 590 590 590 590 590 590 590 590 590 590 590 590 590 590 590 590 590 590
 590 590 590 590 590 590 590 434 434 434 434 434 434 434 434 434 434 434
 434 434 434 434 434 434 434 434 434]
atom H rad-grids = 99, ang-grids = [ 50  50  50  50  50  50  50  50  50  50  50  50  50  50  50  50  50  50
  50  50  50  50  50  50  50  50  50  50  86  86  86  86  86  86  86 434
 434 434 434 434 434 434 434 590 590 590 590 590 590 590 590 590 590 590
 590 590 590 590 590 590 590 590 590 590 590 590 590 590 590 434 434 434
 434 434 434 434 434 434 434 434 434 434 434 434 434 434 434 434 434 434
 434 434 434 434 434 434 434 434 434]
tot_boxes 5270, boxes in each direction [ 8 29 15]
Padding 0 grids
tot grids = 1157832


******** <class 'pyscf.dft.rks.RKS'> ********
method = RKS
initial guess = minao
damping factor = 0
level_shift factor = 0
DIIS = <class 'pyscf.scf.diis.CDIIS'>
diis_start_cycle = 1
diis_space = 8
SCF conv_tol = 1e-10
SCF conv_tol_grad = None
SCF max_cycles = 50
direct_scf = True
direct_scf_tol = 1e-13
chkfile to save SCF result = /home/saade/mlelec/tutorials/tmplnmdihtj
max_memory 4000 MB (current use 635 MB)
XC library pyscf.dft.libxc version 6.1.0
    S. Lehtola, C. Steigemann, M. J.T. Oliveira, and M. A.L. Marques.,  SoftwareX 7, 1–5 (2018)
XC functionals = b3lypg
    P. J. Stephens, F. J. Devlin, C. F. Chabalowski, and M. J. Frisch.,  J. Phys. Chem. 98, 11623 (1994)
radial grids: 
    Treutler-Ahlrichs [JCP 102, 346 (1995); DOI:10.1063/1.469408] (M4) radial grids
    
becke partition: Becke, JCP 88, 2547 (1988); DOI:10.1063/1.454033
pruning grids: <function nwchem_prune at 0x7f9db5616ca0>
grids dens level: 3
symmetrized grids: False
atomic radii adjust function: <function treutler_atomic_radii_adjust at 0x7f9db5617380>
User specified grid scheme (99, 590)
small_rho_cutoff = 1e-07
Set gradient conv threshold to 1e-05
Initial guess from minao.
nelec by numeric integration = 145.27128277817718
    CPU time for vxc     37.33 sec, wall time     15.70 sec
E1 = -4108.162563552934  Ecoul = 1888.481020227804  Exc = -126.14966153150877
init E= -841.712804212248
cond(S) = 22.462525708967256
    CPU time for initialize scf     46.72 sec, wall time     18.03 sec
  HOMO = -0.200139731319684  LUMO = -0.161493068177869
  mo_energy =
[-1.01610076e+01 -1.01369875e+01 -1.01317112e+01 -1.01224249e+01
 -1.01218003e+01 -1.01199695e+01 -1.01198630e+01 -1.01167770e+01
 -1.01110712e+01 -1.01101084e+01 -1.01068050e+01 -1.01062597e+01
 -1.01038593e+01 -1.01026467e+01 -1.01017937e+01 -1.00941657e+01
 -1.00925564e+01 -1.00924441e+01 -1.00923149e+01 -1.00857881e+01
 -1.00834494e+01 -1.00526260e+01 -1.10827283e+00 -1.07594260e+00
 -1.05124750e+00 -1.00407767e+00 -9.71075212e-01 -9.46491191e-01
 -9.32645506e-01 -9.03389025e-01 -8.70576937e-01 -8.55814948e-01
 -7.95291970e-01 -7.71952610e-01 -7.18310173e-01 -6.95447093e-01
 -6.86797245e-01 -6.75608216e-01 -6.64028451e-01 -6.48753996e-01
 -6.07185400e-01 -5.89199909e-01 -5.72608673e-01 -5.51901520e-01
 -5.40664421e-01 -5.31264598e-01 -5.06152981e-01 -5.02312518e-01
 -4.96700399e-01 -4.89278019e-01 -4.79429285e-01 -4.74699600e-01
 -4.65513973e-01 -4.57925633e-01 -4.49362227e-01 -4.36348859e-01
 -4.29280150e-01 -4.23715811e-01 -4.10977543e-01 -4.01468256e-01
 -3.79262590e-01 -3.74844243e-01 -3.69071605e-01 -3.62943569e-01
 -3.48092498e-01 -3.38084074e-01 -3.21648866e-01 -3.14864163e-01
 -3.03055779e-01 -2.91362330e-01 -2.73576331e-01 -2.64722850e-01
 -2.00139731e-01 -1.61493068e-01 -8.95484827e-02 -7.01292142e-02
 -3.78294822e-02 -3.31655165e-02  6.71878384e-03  3.45097697e-02
  5.00188899e-02  8.62430473e-02  9.91732211e-02  1.15092376e-01
  1.25376997e-01  1.33925996e-01  1.44762745e-01  1.62026525e-01
  1.72933801e-01  1.83262927e-01  2.00697755e-01  2.21258581e-01
  2.34229741e-01  2.47085570e-01  2.66097744e-01  2.72733068e-01
  2.77830751e-01  2.88153924e-01  3.01160116e-01  3.18860950e-01
  3.47912270e-01  3.58087218e-01  3.68335976e-01  3.79154475e-01
  3.92229367e-01  4.25316146e-01  4.39879951e-01  4.60631254e-01
  4.76582708e-01  4.86613618e-01  5.00386145e-01  5.28039379e-01
  5.66256605e-01  5.83422828e-01  5.93128949e-01  5.97203453e-01
  6.54269791e-01  6.93798930e-01  7.01783102e-01  7.32701995e-01
  7.68416153e-01  8.17117009e-01  8.35132521e-01  8.77874281e-01]
nelec by numeric integration = 146.00000243772377
    CPU time for vxc     38.61 sec, wall time     16.01 sec
E1 = -4124.491821536342  Ecoul = 1909.4736699669745  Exc = -124.80243893816765
cycle= 1 E= -835.702189863144  delta_E= 6.01  |g|= 0.352  |ddm|=  9.3
    CPU time for cycle= 1     38.96 sec, wall time     16.07 sec
  HOMO = -0.073706378241973  LUMO = 0.00072925345364699
  mo_energy =
[-1.01402123e+01 -1.00555635e+01 -1.00246917e+01 -1.00234601e+01
 -1.00131035e+01 -1.00038911e+01 -9.99953637e+00 -9.98679626e+00
 -9.98615377e+00 -9.97900018e+00 -9.97725214e+00 -9.96858169e+00
 -9.96696258e+00 -9.96094383e+00 -9.95753153e+00 -9.94445233e+00
 -9.94053378e+00 -9.93717048e+00 -9.91370253e+00 -9.90500362e+00
 -9.89917395e+00 -9.89637501e+00 -8.39071486e-01 -8.24080496e-01
 -7.87157863e-01 -7.61630124e-01 -7.52001397e-01 -7.26948346e-01
 -7.16825540e-01 -6.87384504e-01 -6.72165235e-01 -6.56290275e-01
 -6.32531727e-01 -5.93084324e-01 -5.75869860e-01 -5.51114282e-01
 -5.41132311e-01 -5.29613311e-01 -5.09846470e-01 -4.94955893e-01
 -4.71237911e-01 -4.65968018e-01 -4.53894144e-01 -4.37221647e-01
 -4.26738325e-01 -4.13406783e-01 -3.96074026e-01 -3.87036959e-01
 -3.78276298e-01 -3.67667204e-01 -3.61167189e-01 -3.56322483e-01
 -3.39956479e-01 -3.35492919e-01 -3.29459487e-01 -3.22785158e-01
 -3.16945532e-01 -3.09127679e-01 -2.99793310e-01 -2.92861178e-01
 -2.69025434e-01 -2.59888082e-01 -2.51179821e-01 -2.46281402e-01
 -2.39080349e-01 -2.24327181e-01 -2.18651724e-01 -2.04342233e-01
 -1.77016929e-01 -1.59989640e-01 -1.49439810e-01 -1.35834483e-01
 -7.37063782e-02  7.29253454e-04  5.31996079e-02  9.24621744e-02
  1.23640200e-01  1.28709347e-01  1.72853364e-01  1.89558909e-01
  1.98973918e-01  2.39238455e-01  2.54327331e-01  2.60775259e-01
  2.75222016e-01  2.91453358e-01  3.14521211e-01  3.16444276e-01
  3.29702539e-01  3.35871739e-01  3.38944218e-01  3.48069311e-01
  3.60733961e-01  3.87874622e-01  3.89819310e-01  4.26325284e-01
  4.30316594e-01  4.37451298e-01  4.76222748e-01  4.92332211e-01
  4.93993057e-01  5.19257305e-01  5.29182622e-01  5.50755043e-01
  5.52671632e-01  5.91508044e-01  6.09412487e-01  6.28944099e-01
  6.39578953e-01  6.60033367e-01  6.69756174e-01  7.23103609e-01
  7.34813215e-01  7.70918105e-01  7.81245260e-01  8.02568062e-01
  8.31567873e-01  8.59045132e-01  8.67584030e-01  9.17271285e-01
  9.64451367e-01  9.73834538e-01  1.01800025e+00  1.11022524e+00]
nelec by numeric integration = 146.00000236263108
    CPU time for vxc     38.68 sec, wall time     15.97 sec
E1 = -4115.694183862797  Ecoul = 1900.747878602963  Exc = -124.66751725300676
cycle= 2 E= -835.495421868449  delta_E= 0.207  |g|= 0.754  |ddm|= 1.92
    CPU time for cycle= 2     39.17 sec, wall time     16.04 sec
  HOMO = -0.0851824974753989  LUMO = -0.0204425985022218
  mo_energy =
[-10.02846805 -10.02141291 -10.02136376 -10.01995708 -10.01951546
 -10.01924988 -10.01302316 -10.01071227 -10.00935202 -10.00491009
 -10.0038389   -9.99688977  -9.99661671  -9.99498137  -9.99418456
  -9.9904459   -9.98144892  -9.97836163  -9.97663794  -9.97516947
  -9.97515125  -9.93238941  -0.85113981  -0.83832882  -0.80830606
  -0.781728    -0.75964298  -0.74295777  -0.73195948  -0.71817683
  -0.68864241  -0.6831436   -0.63888252  -0.61160423  -0.57421249
  -0.56814364  -0.54962141  -0.53976292  -0.52933381  -0.52242693
  -0.48795802  -0.47405615  -0.45584404  -0.44269255  -0.43561183
  -0.42021968  -0.40719199  -0.40037927  -0.39881086  -0.39266864
  -0.37130161  -0.36476229  -0.3625633   -0.3602081   -0.34909644
  -0.33396312  -0.32968086  -0.32788841  -0.31080869  -0.29665336
  -0.28910947  -0.28099369  -0.27419951  -0.26063811  -0.24728508
  -0.23944809  -0.22061013  -0.21812034  -0.20445268  -0.19226115
  -0.16910669  -0.1524645   -0.0851825   -0.0204426    0.05933134
   0.06709954   0.10463801   0.11655487   0.15407696   0.18760377
   0.21040856   0.22227413   0.24291655   0.26478483   0.26766131
   0.2846364    0.2866473    0.30234113   0.31960189   0.32965003
   0.33117944   0.35240902   0.36423424   0.39878999   0.40479435
   0.41020587   0.41372584   0.42635153   0.44655791   0.45814067
   0.49386097   0.50326326   0.51768283   0.52220724   0.55224069
   0.5792052    0.58383239   0.60319688   0.62686917   0.63516665
   0.64765731   0.68601527   0.71169851   0.71702062   0.73631495
   0.75012984   0.80704752   0.84015588   0.85685081   0.89482374
   0.9246324    0.9677477    0.99852065   1.06361884]
nelec by numeric integration = 146.0000024004961
    CPU time for vxc     38.60 sec, wall time     15.97 sec
E1 = -4119.947243996305  Ecoul = 1904.7820056134458  Exc = -124.6666396654277
cycle= 3 E= -835.713477403895  delta_E= -0.218  |g|= 0.299  |ddm|=  1.9
    CPU time for cycle= 3     39.08 sec, wall time     16.05 sec
  HOMO = -0.0915557165181692  LUMO = -0.0277126192074662
  mo_energy =
[-10.03682315 -10.03527773 -10.03505098 -10.03142437 -10.02878112
 -10.02496252 -10.02430987 -10.02400701 -10.01625668 -10.01468436
 -10.01447876 -10.01126726 -10.0107432  -10.00938568 -10.009017
 -10.00472656 -10.00149724  -9.99977872  -9.99915403  -9.99502355
  -9.9925895   -9.96660811  -0.85999613  -0.84403421  -0.82907441
  -0.7879879   -0.77295988  -0.75842367  -0.74803366  -0.72082931
  -0.69755778  -0.68515079  -0.64030334  -0.6247587   -0.58600481
  -0.56520858  -0.55858424  -0.55435635  -0.53937786  -0.5286703
  -0.49499342  -0.484017    -0.47077041  -0.44980836  -0.43929475
  -0.42796673  -0.41723097  -0.40864359  -0.4004155   -0.3903535
  -0.38812954  -0.38092876  -0.37239632  -0.36102652  -0.35155506
  -0.34280141  -0.34111349  -0.32999163  -0.32305103  -0.30092351
  -0.29329899  -0.28782024  -0.27760924  -0.26889832  -0.25714306
  -0.2495787   -0.2412174   -0.22920281  -0.21006798  -0.20334253
  -0.1749988   -0.16689124  -0.09155572  -0.02771262   0.03944776
   0.06751813   0.10256834   0.10334359   0.14540906   0.17202946
   0.20087564   0.22446908   0.23238282   0.24760679   0.25234938
   0.2748849    0.29063593   0.29645031   0.30852161   0.31683799
   0.33538074   0.34232749   0.37276408   0.38288482   0.38921998
   0.40402858   0.40531114   0.41447274   0.4342616    0.45876531
   0.4940364    0.49966352   0.50678835   0.51647028   0.52655181
   0.56682344   0.57857338   0.60026036   0.61115218   0.62300881
   0.63789849   0.67185595   0.70942349   0.72885926   0.73651547
   0.74685047   0.79479057   0.83425263   0.84286023   0.87442881
   0.92073141   0.96220928   0.97229336   1.03118156]
nelec by numeric integration = 146.0000024417315
    CPU time for vxc     39.09 sec, wall time     16.10 sec
E1 = -4120.508796883759  Ecoul = 1905.330958859331  Exc = -124.6861957532206
cycle= 4 E= -835.745633133257  delta_E= -0.0322  |g|= 0.155  |ddm|= 0.927
    CPU time for cycle= 4     39.62 sec, wall time     16.18 sec
  HOMO = -0.0980757996609728  LUMO = -0.0344018342796176
  mo_energy =
[-10.03368181 -10.02963736 -10.02632839 -10.0241627  -10.02335523
 -10.02191892 -10.02153954 -10.02076725 -10.02017001 -10.01855019
 -10.01676598 -10.01632931 -10.01429812 -10.0135923  -10.0129843
 -10.0120945  -10.01201547 -10.0090791  -10.0061574  -10.00373287
  -9.99946681  -9.99158459  -0.85644649  -0.84793834  -0.82721059
  -0.79028223  -0.77105823  -0.75842376  -0.74851833  -0.72328277
  -0.69881156  -0.68856904  -0.64456839  -0.62793928  -0.58553501
  -0.57149273  -0.55929105  -0.55364756  -0.53819106  -0.53038949
  -0.49571427  -0.48444798  -0.46854133  -0.4501585   -0.44184801
  -0.4272649   -0.41652248  -0.40946684  -0.40639948  -0.39386834
  -0.38799756  -0.37531598  -0.37124153  -0.36594618  -0.35502436
  -0.34266935  -0.33726877  -0.33046132  -0.32825114  -0.30325807
  -0.29496252  -0.28974489  -0.28780604  -0.26920312  -0.25984232
  -0.25057748  -0.24245094  -0.23091121  -0.20979711  -0.20392971
  -0.17766395  -0.1674157   -0.0980758   -0.03440183   0.04008107
   0.06343495   0.09688534   0.10238253   0.14323861   0.17107595
   0.20173118   0.22435224   0.23105773   0.24753774   0.25127123
   0.27789857   0.28454957   0.29657566   0.30376936   0.31891069
   0.33564414   0.33965503   0.36734798   0.38124429   0.38827918
   0.40442391   0.40472717   0.41289537   0.43351513   0.45583026
   0.49164331   0.49733326   0.5066587    0.51537274   0.52436115
   0.57027527   0.57643974   0.5940268    0.61382006   0.62652334
   0.63483983   0.67497356   0.70679954   0.71880002   0.73440692
   0.7399954    0.79645988   0.83363337   0.83896275   0.877634
   0.91619759   0.95849837   0.97248795   1.04352728]
nelec by numeric integration = 146.0000024134287
    CPU time for vxc     38.42 sec, wall time     16.02 sec
E1 = -4120.326941823542  Ecoul = 1905.1432424616557  Exc = -124.68970834119037
cycle= 5 E= -835.755007058685  delta_E= -0.00937  |g|= 0.0614  |ddm|= 0.417
    CPU time for cycle= 5     38.77 sec, wall time     16.08 sec
  HOMO = -0.0966492353418753  LUMO = -0.0313037915238889
  mo_energy =
[-10.03967355 -10.03022383 -10.02696319 -10.02567705 -10.02270286
 -10.02245384 -10.02143544 -10.01900802 -10.01868505 -10.01654834
 -10.0149095  -10.01478079 -10.01239677 -10.01222362 -10.01140733
 -10.0108412  -10.00856336 -10.00749316 -10.00224664 -10.00079056
  -9.99702867  -9.99649305  -0.85613919  -0.84799022  -0.82693098
  -0.78803086  -0.77117687  -0.75829744  -0.74846279  -0.72261054
  -0.69851515  -0.68945507  -0.64226767  -0.62702762  -0.58494616
  -0.57061113  -0.55849423  -0.5533624   -0.53797799  -0.53059531
  -0.49475069  -0.48390998  -0.46896046  -0.44973987  -0.44136675
  -0.42648097  -0.41573268  -0.40946498  -0.40533384  -0.39358621
  -0.38790856  -0.37587633  -0.37169368  -0.36492413  -0.35497116
  -0.34286043  -0.33870349  -0.33022357  -0.32823933  -0.30213364
  -0.29372071  -0.28870715  -0.28619374  -0.2691454   -0.25921475
  -0.25096235  -0.24099328  -0.2308266   -0.20935482  -0.20488693
  -0.17843051  -0.16772796  -0.09664924  -0.03130379   0.04105447
   0.06301141   0.0975606    0.10276104   0.14315888   0.17171617
   0.2020461    0.22507901   0.23105612   0.24856421   0.2519744
   0.27700433   0.28564696   0.29687135   0.30423896   0.31860094
   0.33587167   0.33935859   0.36751308   0.38375161   0.3890438
   0.40367366   0.40529361   0.41379289   0.43421546   0.45658549
   0.49160152   0.49738073   0.50680506   0.51628361   0.52583472
   0.56870821   0.57711073   0.59512572   0.61263042   0.62652068
   0.63500359   0.67334057   0.70620383   0.72204349   0.73595746
   0.74011525   0.79642629   0.833681     0.83932371   0.87817411
   0.91751794   0.95924062   0.97375102   1.04377397]
nelec by numeric integration = 146.0000024152329
    CPU time for vxc     38.44 sec, wall time     16.05 sec
E1 = -4120.432283727381  Ecoul = 1905.2450763965358  Exc = -124.6875337018954
cycle= 6 E= -835.756340388349  delta_E= -0.00133  |g|= 0.0225  |ddm|= 0.123
    CPU time for cycle= 6     39.04 sec, wall time     16.14 sec
  HOMO = -0.096633657317904  LUMO = -0.0308591700304031
  mo_energy =
[-10.03622439 -10.02902001 -10.02872398 -10.02543893 -10.02397954
 -10.02056876 -10.01964147 -10.01962369 -10.01786044 -10.01468368
 -10.01386597 -10.01371101 -10.01278032 -10.01115223 -10.01017408
 -10.00834529 -10.00756601 -10.00589936 -10.00459651 -10.00073136
  -9.99904185  -9.99227731  -0.85607436  -0.84731732  -0.8261716
  -0.78873934  -0.77063303  -0.75717348  -0.74788047  -0.72211322
  -0.6983119   -0.68815625  -0.64188954  -0.62675822  -0.58472499
  -0.56991307  -0.55784581  -0.55310887  -0.5378758   -0.52990054
  -0.49482118  -0.48356212  -0.46822978  -0.44979741  -0.44083277
  -0.4267375   -0.41527806  -0.40891687  -0.40472356  -0.39289804
  -0.38739923  -0.37603068  -0.37152813  -0.36447555  -0.35421654
  -0.34218097  -0.33829494  -0.32946691  -0.32758607  -0.30133648
  -0.29402284  -0.28857115  -0.28580169  -0.26853933  -0.25834601
  -0.25027698  -0.24046791  -0.23027901  -0.20872334  -0.20465066
  -0.17753665  -0.16712234  -0.09663366  -0.03085917   0.04157357
   0.06411166   0.09840166   0.10327094   0.14407891   0.17236291
   0.2020269    0.22542133   0.23113882   0.24893606   0.25247928
   0.27707688   0.28627918   0.29752905   0.30504597   0.31908756
   0.33634591   0.33916753   0.36813865   0.38430724   0.38980046
   0.40420083   0.4059919    0.41420918   0.43437863   0.45662246
   0.49277089   0.49743247   0.50749486   0.51627044   0.52702966
   0.56973007   0.57745837   0.59591248   0.61373514   0.62645625
   0.63568684   0.67475292   0.7072592    0.72217299   0.73641609
   0.7400776    0.79651483   0.83467858   0.84013857   0.87809438
   0.91766195   0.95994894   0.97423935   1.0418129 ]
nelec by numeric integration = 146.0000024211535
    CPU time for vxc     38.33 sec, wall time     15.97 sec
E1 = -4120.371843292083  Ecoul = 1905.1828362291285  Exc = -124.68590461914384
cycle= 7 E= -835.756511037707  delta_E= -0.000171  |g|= 0.00551  |ddm|= 0.0364
    CPU time for cycle= 7     39.09 sec, wall time     16.10 sec
  HOMO = -0.0966994776725491  LUMO = -0.0307889706299246
  mo_energy =
[-10.03600676 -10.02876603 -10.02830953 -10.02480915 -10.02444968
 -10.02063677 -10.01939333 -10.01896709 -10.01802673 -10.01489647
 -10.01398392 -10.0135616  -10.0122428  -10.0113175  -10.00999901
 -10.00846598 -10.00803421 -10.00528667 -10.00449561 -10.00050387
  -9.99887973  -9.9935337   -0.85590049  -0.84722834  -0.8262272
  -0.78861978  -0.77058467  -0.75731829  -0.74784729  -0.7219996
  -0.69816697  -0.68818357  -0.64191379  -0.62665782  -0.58462542
  -0.56984915  -0.55789275  -0.55303737  -0.53784803  -0.5298718
  -0.49472909  -0.48350727  -0.46828232  -0.44966312  -0.44084361
  -0.4267496   -0.41529059  -0.40885247  -0.40474735  -0.39288757
  -0.38732048  -0.37588381  -0.37140303  -0.36441441  -0.3541554
  -0.34218532  -0.33835483  -0.32938221  -0.32759489  -0.30139992
  -0.29391798  -0.2885036   -0.28575815  -0.26849111  -0.25841075
  -0.25022424  -0.24046242  -0.23022863  -0.2086173   -0.20452276
  -0.17737932  -0.16711871  -0.09669948  -0.03078897   0.04168521
   0.06418727   0.09847143   0.10333799   0.14402861   0.17234357
   0.20205522   0.22547489   0.23127621   0.24897725   0.25250075
   0.27727017   0.28642633   0.29758244   0.30509936   0.31911591
   0.33639857   0.33934507   0.36824843   0.38430072   0.38967203
   0.40423971   0.40584367   0.41412272   0.43440919   0.45678468
   0.49295211   0.49758055   0.50742113   0.5163872    0.52692955
   0.56963426   0.57753612   0.59596656   0.61363769   0.62659324
   0.63572809   0.67445584   0.7073551    0.72217643   0.73646054
   0.74017476   0.79666031   0.83466497   0.84005174   0.87818225
   0.91769797   0.95996964   0.974268     1.04227922]
nelec by numeric integration = 146.00000241995787
    CPU time for vxc     39.17 sec, wall time     16.15 sec
E1 = -4120.368246182612  Ecoul = 1905.1792327121116  Exc = -124.68590746508198
cycle= 8 E= -835.756520291191  delta_E= -9.25e-06  |g|= 0.00251  |ddm|= 0.008
    CPU time for cycle= 8     39.58 sec, wall time     16.22 sec
  HOMO = -0.0967777606574149  LUMO = -0.0307973615385804
  mo_energy =
[-10.03601519 -10.02899132 -10.02843851 -10.02459555 -10.02449941
 -10.02071286 -10.019608   -10.01951865 -10.01813422 -10.01492342
 -10.01413881 -10.01370248 -10.01259986 -10.01122238 -10.01015287
 -10.00838019 -10.00821088 -10.00541957 -10.00468748 -10.00018771
  -9.99914355  -9.99330896  -0.85604181  -0.84737444  -0.82620876
  -0.78874469  -0.7706372   -0.75730672  -0.74789664  -0.72212588
  -0.69826412  -0.68829788  -0.64195065  -0.62671443  -0.58465721
  -0.56999448  -0.5578844   -0.55308207  -0.53790427  -0.529943
  -0.49480515  -0.48355302  -0.4682566   -0.44975963  -0.44091485
  -0.42679731  -0.41523986  -0.40894115  -0.4048327   -0.39299357
  -0.38732874  -0.37594067  -0.37150195  -0.36450313  -0.35427487
  -0.34219629  -0.33835907  -0.3295107   -0.32759322  -0.3013592
  -0.29401005  -0.28858561  -0.28588113  -0.26855325  -0.25842765
  -0.25029061  -0.24040615  -0.2303016   -0.20873464  -0.20458786
  -0.17749732  -0.16713599  -0.09677776  -0.03079736   0.04169657
   0.06403015   0.09835259   0.10329096   0.14397471   0.17232679
   0.20196719   0.22537204   0.23123283   0.24901127   0.2524976
   0.27716586   0.28625727   0.29754588   0.30505126   0.31912134
   0.33628205   0.33926205   0.36810399   0.38443431   0.3897433
   0.40417799   0.4059009    0.41410761   0.434386     0.45665326
   0.49273316   0.4974864    0.50742207   0.516289     0.52703454
   0.56959069   0.57744859   0.59584728   0.61364996   0.6265323
   0.63562311   0.6744835    0.70719693   0.72202851   0.73631548
   0.74004725   0.79657548   0.83458162   0.8400228    0.87814602
   0.91753978   0.95983503   0.97426159   1.04215711]
nelec by numeric integration = 146.0000024203632
    CPU time for vxc     39.16 sec, wall time     16.23 sec
E1 = -4120.378969864632  Ecoul = 1905.1900860107917  Exc = -124.68603991910732
cycle= 9 E= -835.756523128556  delta_E= -2.84e-06  |g|= 0.000597  |ddm|= 0.00483
    CPU time for cycle= 9     39.49 sec, wall time     16.28 sec
  HOMO = -0.0967969906084474  LUMO = -0.0308093579741577
  mo_energy =
[-10.03610564 -10.0289059  -10.02854157 -10.02472001 -10.02455088
 -10.02063223 -10.01962895 -10.01938582 -10.01809797 -10.01492001
 -10.01409651 -10.01367386 -10.01259214 -10.01121157 -10.01015662
 -10.00846094 -10.00818884 -10.00541643 -10.00473662 -10.00019059
  -9.99920711  -9.99343495  -0.85604924  -0.84736113  -0.82623384
  -0.78876635  -0.77064499  -0.75730908  -0.74790114  -0.72212707
  -0.69828409  -0.68830373  -0.64196828  -0.62673029  -0.58466351
  -0.56996958  -0.5578989   -0.55309582  -0.53792047  -0.5299468
  -0.49481947  -0.48356272  -0.46828444  -0.44976045  -0.44091391
  -0.42680834  -0.4152325   -0.40893924  -0.40483622  -0.39298028
  -0.38733937  -0.37597121  -0.37151033  -0.36450845  -0.35426287
  -0.34220672  -0.33839466  -0.32949608  -0.32761134  -0.30136777
  -0.2940279   -0.28859918  -0.28588217  -0.26855264  -0.25842179
  -0.25029435  -0.24041574  -0.23029771  -0.20873936  -0.20461318
  -0.17750141  -0.16716524  -0.09679699  -0.03080936   0.04167299
   0.06403453   0.09834878   0.10328422   0.14397185   0.17231865
   0.20193685   0.22537976   0.23121493   0.24900064   0.25248983
   0.27714338   0.28627236   0.29753736   0.30504739   0.31911784
   0.33630068   0.33924539   0.36812318   0.38442059   0.38972427
   0.40417305   0.4058905    0.41408993   0.43436824   0.45665763
   0.49276842   0.49748731   0.50740535   0.51628135   0.52700899
   0.56955619   0.57745615   0.59585797   0.61361994   0.62651455
   0.63562939   0.67443512   0.70720642   0.72201474   0.7363151
   0.74003268   0.79655291   0.83458636   0.84000255   0.87811723
   0.91753963   0.95985907   0.97427216   1.04211083]
nelec by numeric integration = 146.00000242035372
    CPU time for vxc     38.05 sec, wall time     15.91 sec
E1 = -4120.380348064483  Ecoul = 1905.191470596278  Exc = -124.68604640397902
cycle= 10 E= -835.756523227792  delta_E= -9.92e-08  |g|= 0.000297  |ddm|= 0.00095
    CPU time for cycle= 10     38.38 sec, wall time     15.97 sec
  HOMO = -0.0967892565388846  LUMO = -0.0308005540482953
  mo_energy =
[-10.03605603 -10.02894734 -10.02852787 -10.02467234 -10.02451643
 -10.02061988 -10.01963771 -10.0194413  -10.01810728 -10.0149314
 -10.01411748 -10.01365636 -10.01257314 -10.0111807  -10.01019713
 -10.00841128 -10.00821718 -10.00539186 -10.00471843 -10.00012862
  -9.99921357  -9.9934121   -0.85604878  -0.84736374  -0.82621219
  -0.78876342  -0.77063873  -0.7572986   -0.74789339  -0.72212983
  -0.6982813   -0.68830305  -0.64196008  -0.62671933  -0.58465649
  -0.5699827   -0.55788602  -0.55308734  -0.53791468  -0.52994529
  -0.49481513  -0.48355394  -0.46826882  -0.4497589   -0.4409173
  -0.42680686  -0.41522045  -0.40894335  -0.40483721  -0.39298596
  -0.38731853  -0.37595889  -0.37151301  -0.36451054  -0.35427224
  -0.34220035  -0.33838695  -0.32950231  -0.32759568  -0.30135403
  -0.29402569  -0.28859736  -0.28588765  -0.26854949  -0.25841646
  -0.25029371  -0.2403953   -0.23029724  -0.20873686  -0.20460269
  -0.17749772  -0.167154    -0.09678926  -0.03080055   0.04168638
   0.06403041   0.09835048   0.10329048   0.14397204   0.17233049
   0.20194191   0.22537363   0.23122737   0.24901764   0.25250249
   0.27714219   0.28625958   0.29754471   0.30505342   0.3191269
   0.33629338   0.33925284   0.36810643   0.38444879   0.38973992
   0.40416599   0.40590242   0.41409541   0.43437431   0.4566495
   0.49275419   0.49748826   0.50741616   0.51628441   0.52703767
   0.56956487   0.57745634   0.59585567   0.61363564   0.62652608
   0.63562757   0.67444969   0.70720064   0.72201059   0.73630844
   0.74002999   0.79655993   0.83458733   0.84001339   0.87813624
   0.91753154   0.95984754   0.97429111   1.04213453]
nelec by numeric integration = 146.0000024203564
    CPU time for vxc     38.99 sec, wall time     16.06 sec
E1 = -4120.380436494499  Ecoul = 1905.1915442072764  Exc = -124.68603162385568
cycle= 11 E= -835.756523266687  delta_E= -3.89e-08  |g|= 9.28e-05  |ddm|= 0.000736
    CPU time for cycle= 11     39.57 sec, wall time     16.15 sec
  HOMO = -0.0967871346933168  LUMO = -0.0307976218255643
  mo_energy =
[-10.03606236 -10.02893527 -10.02851121 -10.02466736 -10.0245248
 -10.02062988 -10.01963057 -10.01943262 -10.0181095  -10.01492015
 -10.01411678 -10.01365597 -10.01258584 -10.0111829  -10.01015993
 -10.00841157 -10.00821235 -10.00539609 -10.0047256  -10.00012593
  -9.99920733  -9.99340981  -0.85604443  -0.84736169  -0.8262133
  -0.78876053  -0.77063552  -0.75729884  -0.74789224  -0.72212605
  -0.69827609  -0.68830312  -0.6419586   -0.6267178   -0.58465295
  -0.56997889  -0.55788617  -0.55308559  -0.53791303  -0.5299432
  -0.4948121   -0.48355264  -0.46826879  -0.44975671  -0.44091431
  -0.42680484  -0.41522262  -0.40893827  -0.4048354   -0.39298608
  -0.38732084  -0.37595694  -0.37150748  -0.36450659  -0.35426751
  -0.34219868  -0.3383864   -0.32950099  -0.32759617  -0.30135459
  -0.29402231  -0.28859462  -0.28588517  -0.26854714  -0.25841589
  -0.25028985  -0.24039571  -0.23029408  -0.20873598  -0.20460246
  -0.17749616  -0.16714905  -0.09678713  -0.03079762   0.04169096
   0.06403121   0.09835098   0.10329314   0.14397495   0.17233036
   0.20194449   0.22537485   0.23122735   0.24901767   0.25250236
   0.27714953   0.28626525   0.29754569   0.30505483   0.3191256
   0.33629206   0.33925521   0.36811204   0.38444695   0.38973885
   0.40417193   0.40590248   0.41409733   0.43437694   0.45665473
   0.49275809   0.49749049   0.50741629   0.51628727   0.52703707
   0.56956685   0.57745738   0.59585651   0.61363571   0.62652762
   0.63563065   0.6744496    0.70720364   0.72201273   0.73631199
   0.74003558   0.79656353   0.83458861   0.84001448   0.87813558
   0.91753666   0.95985385   0.97428853   1.04213795]
nelec by numeric integration = 146.00000242035125
    CPU time for vxc     38.53 sec, wall time     15.99 sec
E1 = -4120.380191065467  Ecoul = 1905.1912960034051  Exc = -124.68602885210107
cycle= 12 E= -835.756523269772  delta_E= -3.09e-09  |g|= 2.92e-05  |ddm|= 0.000158
    CPU time for cycle= 12     38.86 sec, wall time     16.05 sec
  HOMO = -0.0967870593527669  LUMO = -0.0307983259435289
  mo_energy =
[-10.03606209 -10.02893631 -10.02851158 -10.02466651 -10.02452304
 -10.02063014 -10.01963041 -10.01943229 -10.0181054  -10.01492013
 -10.01411154 -10.01366061 -10.0125841  -10.01118668 -10.01016428
 -10.00841493 -10.00820944 -10.00539457 -10.00472348 -10.00013183
  -9.99920777  -9.99340958  -0.85604429  -0.847361    -0.82621393
  -0.78876019  -0.77063604  -0.75729923  -0.74789204  -0.72212579
  -0.69827643  -0.6883023   -0.6419589   -0.62671825  -0.58465382
  -0.56997832  -0.55788683  -0.55308579  -0.53791295  -0.52994298
  -0.49481235  -0.48355317  -0.46826898  -0.4497567   -0.44091408
  -0.42680488  -0.4152235   -0.40893834  -0.40483508  -0.39298506
  -0.38732153  -0.37595683  -0.3715074   -0.36450671  -0.35426714
  -0.34219908  -0.33838546  -0.32950044  -0.3275965   -0.30135548
  -0.29402212  -0.28859433  -0.28588465  -0.26854716  -0.2584162
  -0.25029001  -0.24039734  -0.23029397  -0.2087355   -0.20460181
  -0.17749578  -0.16714974  -0.09678706  -0.03079833   0.04168931
   0.06403206   0.09835137   0.10329295   0.14397525   0.17232987
   0.20194491   0.22537579   0.23122735   0.24901636   0.25250171
   0.27714925   0.28626544   0.2975455    0.30505445   0.3191256
   0.33629343   0.33925523   0.36811226   0.38444487   0.38973785
   0.40417186   0.40590121   0.41409696   0.43437681   0.45665471
   0.49275868   0.49749095   0.50741632   0.51628725   0.52703529
   0.56956687   0.57745775   0.59585712   0.61363556   0.62652726
   0.63563088   0.67445007   0.70720448   0.72201336   0.73631269
   0.74003584   0.79656374   0.83458957   0.84001453   0.87813561
   0.91753703   0.95985354   0.97428736   1.04213709]
nelec by numeric integration = 146.0000024203525
    CPU time for vxc     38.60 sec, wall time     16.03 sec
E1 = -4120.380147779269  Ecoul = 1905.1912531485036  Exc = -124.68602928372422
cycle= 13 E= -835.756523270097  delta_E= -3.26e-10  |g|= 8.43e-06  |ddm|= 5.67e-05
    CPU time for cycle= 13     39.03 sec, wall time     16.10 sec
  HOMO = -0.0967872680804038  LUMO = -0.0307984835656045
  mo_energy =
[-10.03606267 -10.02893624 -10.02851191 -10.02466788 -10.02452366
 -10.02063093 -10.01963042 -10.01943255 -10.01810742 -10.01492049
 -10.01411466 -10.0136591  -10.01258383 -10.01118613 -10.01016462
 -10.00841473 -10.00821079 -10.00539593 -10.00472358 -10.00013195
  -9.99920723  -9.99340955  -0.85604462  -0.84736153  -0.82621418
  -0.78876045  -0.77063634  -0.75729953  -0.74789253  -0.72212612
  -0.69827662  -0.68830265  -0.64195904  -0.62671853  -0.58465403
  -0.56997871  -0.55788696  -0.55308604  -0.53791316  -0.52994329
  -0.49481245  -0.48355334  -0.46826924  -0.44975688  -0.44091441
  -0.42680491  -0.41522364  -0.40893865  -0.40483535  -0.3929854
  -0.38732184  -0.37595713  -0.37150772  -0.36450688  -0.35426749
  -0.34219921  -0.33838577  -0.32950071  -0.32759674  -0.30135562
  -0.29402234  -0.28859462  -0.28588491  -0.26854758  -0.25841652
  -0.25029031  -0.24039742  -0.23029439  -0.20873578  -0.20460218
  -0.17749612  -0.16714992  -0.09678727  -0.03079848   0.04168909
   0.06403167   0.0983511    0.10329254   0.14397477   0.17232962
   0.20194464   0.22537536   0.23122704   0.24901623   0.25250147
   0.27714906   0.28626515   0.29754525   0.30505421   0.3191253
   0.33629302   0.33925491   0.36811209   0.38444476   0.3897378
   0.40417173   0.40590128   0.41409685   0.43437658   0.45665465
   0.49275828   0.49749063   0.50741608   0.51628705   0.52703517
   0.5695667    0.57745737   0.59585668   0.6136353    0.62652709
   0.6356305    0.67444984   0.707204     0.7220132    0.73631231
   0.74003546   0.79656329   0.8345888    0.84001415   0.87813521
   0.91753671   0.95985331   0.97428713   1.04213694]
nelec by numeric integration = 146.000002420352
    CPU time for vxc     38.61 sec, wall time     15.97 sec
E1 = -4120.380179715307  Ecoul = 1905.1912860261345  Exc = -124.68603022533938
cycle= 14 E= -835.756523270121  delta_E= -2.32e-11  |g|= 2.32e-06  |ddm|= 1.31e-05
    CPU time for cycle= 14     39.25 sec, wall time     16.07 sec
  HOMO = -0.0967871722481011  LUMO = -0.0307982568241595
  mo_energy =
[-10.0360626  -10.02893638 -10.02851226 -10.02466767 -10.0245243
 -10.02063108 -10.01962999 -10.01943211 -10.01810673 -10.014921
 -10.01411284 -10.01365971 -10.01258401 -10.0111866  -10.01016453
 -10.00841492 -10.00820997 -10.00539611 -10.00472378 -10.00013253
  -9.99920589  -9.99340943  -0.85604455  -0.84736141  -0.82621434
  -0.78876022  -0.7706364   -0.75729962  -0.74789252  -0.72212596
  -0.69827655  -0.6883025   -0.64195886  -0.6267185   -0.5846541
  -0.56997844  -0.55788701  -0.55308606  -0.53791314  -0.52994323
  -0.49481241  -0.48355335  -0.46826933  -0.44975684  -0.44091424
  -0.42680489  -0.41522384  -0.40893859  -0.40483513  -0.39298515
  -0.38732198  -0.37595721  -0.37150766  -0.36450674  -0.35426735
  -0.34219927  -0.33838581  -0.32950047  -0.32759684  -0.30135569
  -0.29402219  -0.28859448  -0.28588455  -0.26854753  -0.25841651
  -0.25029025  -0.24039763  -0.23029433  -0.20873564  -0.20460219
  -0.17749599  -0.16714993  -0.09678717  -0.03079826   0.04168896
   0.06403186   0.09835129   0.10329254   0.14397489   0.17232956
   0.20194476   0.22537566   0.231227     0.24901606   0.25250142
   0.27714905   0.28626539   0.29754526   0.30505424   0.31912515
   0.3362934    0.33925489   0.36811235   0.38444444   0.38973768
   0.4041718    0.40590113   0.41409694   0.43437657   0.45665479
   0.49275851   0.49749058   0.50741603   0.51628712   0.52703499
   0.56956664   0.57745749   0.59585695   0.61363517   0.62652701
   0.63563058   0.6744498    0.70720415   0.72201368   0.73631263
   0.74003566   0.79656337   0.83458902   0.84001422   0.87813517
   0.91753687   0.95985327   0.97428692   1.04213678]
nelec by numeric integration = 146.00000242035256
    CPU time for vxc     38.70 sec, wall time     16.22 sec
E1 = -4120.380169608993  Ecoul = 1905.191275737016  Exc = -124.6860300425129
Extra cycle  E= -835.756523270098  delta_E= 2.23e-11  |g|= 6.75e-06  |ddm|= 1.84e-05
    CPU time for scf_cycle    633.69 sec, wall time    259.81 sec
    CPU time for SCF    633.69 sec, wall time    259.81 sec
converged SCF energy = -835.756523270098
nelec by numeric integration = 146.00000242035256
    CPU time for vxc     38.14 sec, wall time     15.88 sec
 ** Mulliken pop  **
pop of  0 C 1s            1.99059
pop of  0 C 2s            1.10393
pop of  0 C 2px           0.97665
pop of  0 C 2py           0.97114
pop of  0 C 2pz           0.96134
pop of  1 C 1s            1.99076
pop of  1 C 2s            1.11889
pop of  1 C 2px           0.99860
pop of  1 C 2py           0.95115
pop of  1 C 2pz           0.92132
pop of  2 C 1s            1.99083
pop of  2 C 2s            1.13853
pop of  2 C 2px           1.02374
pop of  2 C 2py           0.95962
pop of  2 C 2pz           1.01172
pop of  3 C 1s            1.99108
pop of  3 C 2s            1.18366
pop of  3 C 2px           0.99042
pop of  3 C 2py           0.93607
pop of  3 C 2pz           0.95970
pop of  4 C 1s            1.99108
pop of  4 C 2s            1.13704
pop of  4 C 2px           0.99335
pop of  4 C 2py           0.97638
pop of  4 C 2pz           0.98635
pop of  5 C 1s            1.99069
pop of  5 C 2s            1.10403
pop of  5 C 2px           1.02176
pop of  5 C 2py           0.96372
pop of  5 C 2pz           1.00296
pop of  6 C 1s            1.99153
pop of  6 C 2s            1.11984
pop of  6 C 2px           1.00658
pop of  6 C 2py           1.02103
pop of  6 C 2pz           0.94665
pop of  7 C 1s            1.99205
pop of  7 C 2s            1.29428
pop of  7 C 2px           0.89314
pop of  7 C 2py           0.91989
pop of  7 C 2pz           0.92407
pop of  8 C 1s            1.99122
pop of  8 C 2s            1.18168
pop of  8 C 2px           0.95662
pop of  8 C 2py           0.93117
pop of  8 C 2pz           0.93341
pop of  9 C 1s            1.99126
pop of  9 C 2s            1.05208
pop of  9 C 2px           0.99844
pop of  9 C 2py           1.00871
pop of  9 C 2pz           0.93781
pop of  10 C 1s           1.99062
pop of  10 C 2s           1.10477
pop of  10 C 2px          1.01548
pop of  10 C 2py          0.98623
pop of  10 C 2pz          1.02050
pop of  11 C 1s           1.99054
pop of  11 C 2s           1.03363
pop of  11 C 2px          1.03828
pop of  11 C 2py          1.02135
pop of  11 C 2pz          1.04800
pop of  12 C 1s           1.99093
pop of  12 C 2s           1.11625
pop of  12 C 2px          0.97071
pop of  12 C 2py          0.97266
pop of  12 C 2pz          0.94070
pop of  13 C 1s           1.99060
pop of  13 C 2s           1.08953
pop of  13 C 2px          1.01371
pop of  13 C 2py          0.97344
pop of  13 C 2pz          0.93780
pop of  14 C 1s           1.99138
pop of  14 C 2s           1.18870
pop of  14 C 2px          1.00187
pop of  14 C 2py          0.92628
pop of  14 C 2pz          1.00348
pop of  15 C 1s           1.99119
pop of  15 C 2s           1.17098
pop of  15 C 2px          0.98666
pop of  15 C 2py          0.92882
pop of  15 C 2pz          0.96084
pop of  16 C 1s           1.99112
pop of  16 C 2s           1.18638
pop of  16 C 2px          0.96209
pop of  16 C 2py          0.91443
pop of  16 C 2pz          0.92577
pop of  17 C 1s           1.99070
pop of  17 C 2s           1.08583
pop of  17 C 2px          1.00362
pop of  17 C 2py          0.97321
pop of  17 C 2pz          0.96720
pop of  18 C 1s           1.99114
pop of  18 C 2s           1.17227
pop of  18 C 2px          0.97278
pop of  18 C 2py          0.95477
pop of  18 C 2pz          0.96126
pop of  19 C 1s           1.99071
pop of  19 C 2s           1.09190
pop of  19 C 2px          1.01299
pop of  19 C 2py          0.98611
pop of  19 C 2pz          1.02716
pop of  20 C 1s           1.99079
pop of  20 C 2s           1.12454
pop of  20 C 2px          0.99784
pop of  20 C 2py          0.98691
pop of  20 C 2pz          0.98340
pop of  21 C 1s           1.99095
pop of  21 C 2s           1.15890
pop of  21 C 2px          0.98023
pop of  21 C 2py          0.95566
pop of  21 C 2pz          0.95771
pop of  22 H 1s           0.89236
pop of  23 H 1s           0.94698
pop of  24 H 1s           0.92111
pop of  25 H 1s           0.93150
pop of  26 H 1s           0.90463
pop of  27 H 1s           0.94725
pop of  28 H 1s           0.90340
pop of  29 H 1s           0.89803
pop of  30 H 1s           0.89703
pop of  31 H 1s           0.93931
pop of  32 H 1s           0.93963
pop of  33 H 1s           0.90232
pop of  34 H 1s           0.93089
pop of  35 H 1s           0.93267
 ** Mulliken atomic charges  **
charge of    0C =     -0.00365
charge of    1C =      0.01927
charge of    2C =     -0.12444
charge of    3C =     -0.06093
charge of    4C =     -0.08421
charge of    5C =     -0.08316
charge of    6C =     -0.08563
charge of    7C =     -0.02342
charge of    8C =      0.00590
charge of    9C =      0.01170
charge of   10C =     -0.11759
charge of   11C =     -0.13181
charge of   12C =      0.00875
charge of   13C =     -0.00508
charge of   14C =     -0.11171
charge of   15C =     -0.03850
charge of   16C =      0.02021
charge of   17C =     -0.02056
charge of   18C =     -0.05222
charge of   19C =     -0.10887
charge of   20C =     -0.08348
charge of   21C =     -0.04344
charge of   22H =      0.10764
charge of   23H =      0.05302
charge of   24H =      0.07889
charge of   25H =      0.06850
charge of   26H =      0.09537
charge of   27H =      0.05275
charge of   28H =      0.09660
charge of   29H =      0.10197
charge of   30H =      0.10297
charge of   31H =      0.06069
charge of   32H =      0.06037
charge of   33H =      0.09768
charge of   34H =      0.06911
charge of   35H =      0.06733
Dipole moment(X, Y, Z, Debye): -0.17091,  0.76263,  0.08509
nelec by numeric integration = 146.00000242035256
    CPU time for vxc     38.74 sec, wall time     16.11 sec
E1 = -4120.380169608993  Ecoul = 1905.191275737016  Exc = -124.6860300425129
nelec by numeric integration = 146.00000242035256
    CPU time for vxc     38.70 sec, wall time     16.17 sec
E1 = -4120.380169608993  Ecoul = 1905.1912757370171  Exc = -124.6860300425129
