System: uname_result(system='Linux', node='cosmopc18', release='5.15.0-97-generic', version='#107-Ubuntu SMP Wed Feb 7 13:26:48 UTC 2024', machine='x86_64')  Threads 4
Python 3.11.8 (main, Feb 26 2024, 21:39:34) [GCC 11.2.0]
numpy 1.26.4  scipy 1.11.4
Date: Tue Apr  9 10:25:42 2024
PySCF version 2.3.0
PySCF path  /home/saade/miniconda3/envs/tutorial/lib/python3.11/site-packages/pyscf

[ENV] PYSCFAD_BACKEND torch
[CONFIG] conf_file None
[INPUT] verbose = 5
[INPUT] max_memory = 4000 
[INPUT] num. atoms = 36
[INPUT] num. electrons = 146
[INPUT] charge = 0
[INPUT] spin (= nelec alpha-beta = 2S) = 0
[INPUT] symmetry False subgroup None
[INPUT] Mole.unit = angstrom
[INPUT] Symbol           X                Y                Z      unit          X                Y                Z       unit  Magmom
[INPUT]  1 C     -0.019097000000   3.685241000000   0.745699000000 AA   -0.036088099801   6.964096193018   1.409166881362 Bohr   0.0
[INPUT]  2 C     -0.044367000000   3.710317000000  -0.749449000000 AA   -0.083841478969   7.011482965318  -1.416253354329 Bohr   0.0
[INPUT]  3 C      0.073986000000   5.042592000000   1.306791000000 AA    0.139813277052   9.529117837923   2.469477092047 Bohr   0.0
[INPUT]  4 C      0.140934000000   2.434131000000   1.203837000000 AA    0.266326661639   4.599840941314   2.274922228618 Bohr   0.0
[INPUT]  5 C     -0.094409000000   4.891431000000  -1.459220000000 AA   -0.178407153694   9.243464947207  -2.757526155488 Bohr   0.0
[INPUT]  6 C      0.064523000000   2.595440000000  -1.301896000000 AA    0.121930798735   4.904670772741  -2.460226882667 Bohr   0.0
[INPUT]  7 C     -0.023030000000   6.111027000000  -0.896807000000 AA   -0.043520392649  11.548167369822  -1.694719616593 Bohr   0.0
[INPUT]  8 C     -0.003684000000   6.013593000000   0.624164000000 AA   -0.006961751043  11.364043794602   1.179499016813 Bohr   0.0
[INPUT]  9 C      0.059066000000   1.240481000000   0.703373000000 AA    0.111618563274   2.344169352727   1.329182333414 Bohr   0.0
[INPUT] 10 C      0.183706000000   1.112516000000  -0.701093000000 AA    0.347154027439   2.102350549197  -1.324873757850 Bohr   0.0
[INPUT] 11 C     -0.029904000000   0.011343000000   1.375984000000 AA   -0.056510370029   0.021435163431   2.600232911784 Bohr   0.0
[INPUT] 12 C      0.061858000000   0.123591000000  -1.280149000000 AA    0.116894678613   0.233553141461  -2.419131008636 Bohr   0.0
[INPUT] 13 C      0.160309000000  -1.145407000000   0.654422000000 AA    0.302940105303  -2.164505531160   1.236678349890 Bohr   0.0
[INPUT] 14 C      0.061685000000  -1.195808000000  -0.633108000000 AA    0.116567755994  -2.259749617564  -1.196400727271 Bohr   0.0
[INPUT] 15 C     -0.055110000000  -2.491284000000   1.453113000000 AA   -0.104142806725  -4.707844458511   2.745985598045 Bohr   0.0
[INPUT] 16 C      0.035667000000  -2.574272000000  -1.558630000000 AA    0.067400861685  -4.864669050136  -2.945383829531 Bohr   0.0
[INPUT] 17 C     -0.038177000000  -3.809670000000   0.719581000000 AA   -0.072144074258  -7.199232924972   1.359811014441 Bohr   0.0
[INPUT] 18 C     -0.085053000000  -3.782959000000  -0.651271000000 AA   -0.160726876073  -7.148756450459  -1.230723822872 Bohr   0.0
[INPUT] 19 C      0.046678000000  -5.043215000000   1.498550000000 AA    0.088208636042  -9.530295137298   2.831849083967 Bohr   0.0
[INPUT] 20 C     -0.002584000000  -4.815970000000  -1.413616000000 AA   -0.004883052306  -9.100864324122  -2.671347085303 Bohr   0.0
[INPUT] 21 C     -0.055438000000  -6.024788000000   0.855636000000 AA   -0.104762636894 -11.385199278566   1.616917702318 Bohr   0.0
[INPUT] 22 C      0.045544000000  -6.033565000000  -0.684164000000 AA    0.086065686617 -11.401785404761  -1.292882584287 Bohr   0.0
[INPUT] 23 H      0.053388000000   5.073576000000   2.478305000000 AA    0.100888698338   9.587669112166   4.683317703140 Bohr   0.0
[INPUT] 24 H      0.047485000000   2.385470000000   2.539256000000 AA    0.089733645025   4.507884978366   4.798498400159 Bohr   0.0
[INPUT] 25 H     -0.079510000000   4.953203000000  -2.387512000000 AA   -0.150252124164   9.360197109374  -4.511743799113 Bohr   0.0
[INPUT] 26 H      0.174617000000   2.433993000000  -2.331862000000 AA    0.329978306693   4.599580159108  -4.406580540281 Bohr   0.0
[INPUT] 27 H      0.034929000000   7.191335000000  -1.304243000000 AA    0.066006243805  13.589653619999  -2.464662069881 Bohr   0.0
[INPUT] 28 H      0.231179000000   7.117486000000   1.246416000000 AA    0.436864995751  13.450099235426   2.355384877276 Bohr   0.0
[INPUT] 29 H     -0.048108000000   0.158010000000   2.451137000000 AA   -0.090910944401   0.298595624943   4.631977623788 Bohr   0.0
[INPUT] 30 H      0.020837000000  -0.013724000000  -2.550528000000 AA    0.039376223258  -0.025934601334  -4.819799393035 Bohr   0.0
[INPUT] 31 H      0.086735000000  -2.564885000000   2.383088000000 AA    0.163905395414  -4.846930191005   4.503383650738 Bohr   0.0
[INPUT] 32 H      0.095037000000  -2.489944000000  -2.285786000000 AA    0.179593901700  -4.705312225504  -4.319509519365 Bohr   0.0
[INPUT] 33 H     -0.104300000000  -4.932070000000   2.705575000000 AA   -0.197098434792  -9.320261527184   5.112795759470 Bohr   0.0
[INPUT] 34 H      0.135352000000  -5.012659000000  -2.557197000000 AA    0.255778210412  -9.472552665836  -4.832401976559 Bohr   0.0
[INPUT] 35 H      0.045828000000  -7.161302000000   1.175350000000 AA    0.086602368837 -13.532899475300   2.221089600508 Bohr   0.0
[INPUT] 36 H      0.015801000000  -6.927609000000  -1.479007000000 AA    0.029859562494 -13.091283708072  -2.794918166315 Bohr   0.0
[INPUT] ---------------- BASIS SET ---------------- 
[INPUT] l, kappa, [nprim/nctr], expnt,             c_1 c_2 ...
[INPUT] H
[INPUT] 0    0    [3    /1   ]  3.42525091        0.15432897
                                0.62391373        0.53532814
                                0.1688554         0.44463454
[INPUT] C
[INPUT] 0    0    [3    /1   ]  71.616837         0.15432897
                                13.045096         0.53532814
                                3.5305122         0.44463454
[INPUT] 0    0    [3    /1   ]  2.9412494         -0.09996723
                                0.6834831         0.39951283
                                0.2222899         0.70011547
[INPUT] 1    0    [3    /1   ]  2.9412494         0.15591627
                                0.6834831         0.60768372
                                0.2222899         0.39195739

nuclear repulsion = 1502.68891974082
number of shells = 80
number of NR pGTOs = 372
number of NR cGTOs = 124
basis = sto3g
ecp = {}
CPU time:      6398.33
atom C rad-grids = 99, ang-grids = [ 50  50  50  50  50  50  50  50  50  50  50  50  50  50  50  50  50  50
  50  50  50  50  50  50  50  50  50  50  50  50  50  86  86  86  86  86
  86  86  86  86  86  86  86 434 434 434 434 434 434 434 434 434 590 590
 590 590 590 590 590 590 590 590 590 590 590 590 590 590 590 590 590 590
 590 590 590 590 590 590 590 434 434 434 434 434 434 434 434 434 434 434
 434 434 434 434 434 434 434 434 434]
atom H rad-grids = 99, ang-grids = [ 50  50  50  50  50  50  50  50  50  50  50  50  50  50  50  50  50  50
  50  50  50  50  50  50  50  50  50  50  86  86  86  86  86  86  86 434
 434 434 434 434 434 434 434 590 590 590 590 590 590 590 590 590 590 590
 590 590 590 590 590 590 590 590 590 590 590 590 590 590 590 434 434 434
 434 434 434 434 434 434 434 434 434 434 434 434 434 434 434 434 434 434
 434 434 434 434 434 434 434 434 434]
tot_boxes 5440, boxes in each direction [ 8 30 15]
Padding 0 grids
tot grids = 1157832


******** <class 'pyscf.dft.rks.RKS'> ********
method = RKS
initial guess = minao
damping factor = 0
level_shift factor = 0
DIIS = <class 'pyscf.scf.diis.CDIIS'>
diis_start_cycle = 1
diis_space = 8
SCF conv_tol = 1e-10
SCF conv_tol_grad = None
SCF max_cycles = 50
direct_scf = True
direct_scf_tol = 1e-13
chkfile to save SCF result = /home/saade/mlelec/tutorials/tmp31g3nont
max_memory 4000 MB (current use 636 MB)
XC library pyscf.dft.libxc version 6.1.0
    S. Lehtola, C. Steigemann, M. J.T. Oliveira, and M. A.L. Marques.,  SoftwareX 7, 1–5 (2018)
XC functionals = b3lypg
    P. J. Stephens, F. J. Devlin, C. F. Chabalowski, and M. J. Frisch.,  J. Phys. Chem. 98, 11623 (1994)
radial grids: 
    Treutler-Ahlrichs [JCP 102, 346 (1995); DOI:10.1063/1.469408] (M4) radial grids
    
becke partition: Becke, JCP 88, 2547 (1988); DOI:10.1063/1.454033
pruning grids: <function nwchem_prune at 0x7f9db5616ca0>
grids dens level: 3
symmetrized grids: False
atomic radii adjust function: <function treutler_atomic_radii_adjust at 0x7f9db5617380>
User specified grid scheme (99, 590)
small_rho_cutoff = 1e-07
Set gradient conv threshold to 1e-05
Initial guess from minao.
nelec by numeric integration = 145.27008455353172
    CPU time for vxc     37.00 sec, wall time     15.49 sec
E1 = -4104.805804276008  Ecoul = 1886.6121291145537  Exc = -126.20842636690386
init E= -841.713181787535
cond(S) = 24.87512587675051
    CPU time for initialize scf     46.61 sec, wall time     17.80 sec
  HOMO = -0.216327554025758  LUMO = -0.146469758161754
  mo_energy =
[-1.01434881e+01 -1.01368968e+01 -1.01349187e+01 -1.01233107e+01
 -1.01228644e+01 -1.01185350e+01 -1.01180929e+01 -1.01164871e+01
 -1.01158858e+01 -1.01150881e+01 -1.01119796e+01 -1.01106018e+01
 -1.01095089e+01 -1.01055510e+01 -1.01029120e+01 -1.01012920e+01
 -1.01009401e+01 -1.00963547e+01 -1.00927365e+01 -1.00915533e+01
 -1.00766965e+01 -1.00655499e+01 -1.11932180e+00 -1.07489825e+00
 -1.06086343e+00 -9.88331511e-01 -9.61641828e-01 -9.55099821e-01
 -9.41940403e-01 -8.99660894e-01 -8.64144729e-01 -8.57133165e-01
 -8.19760891e-01 -7.61214580e-01 -7.47455908e-01 -7.09832763e-01
 -6.80589858e-01 -6.77722027e-01 -6.67058294e-01 -6.47681553e-01
 -6.00562915e-01 -5.94037576e-01 -5.72734609e-01 -5.60657743e-01
 -5.31612619e-01 -5.17657456e-01 -5.14563424e-01 -5.06359918e-01
 -4.91579284e-01 -4.84052554e-01 -4.83189670e-01 -4.79008030e-01
 -4.65546231e-01 -4.52708201e-01 -4.49390395e-01 -4.36581716e-01
 -4.25693965e-01 -4.19116188e-01 -4.04394754e-01 -4.03046883e-01
 -3.86720807e-01 -3.77225926e-01 -3.68681496e-01 -3.62906949e-01
 -3.51584144e-01 -3.47891445e-01 -3.33488422e-01 -3.16149363e-01
 -3.03370343e-01 -2.92934728e-01 -2.76916308e-01 -2.51101325e-01
 -2.16327554e-01 -1.46469758e-01 -1.11456589e-01 -6.48881717e-02
 -4.39945995e-02 -6.57423605e-03  6.93178199e-03  3.65992820e-02
  4.33291522e-02  6.44379314e-02  8.82607494e-02  1.13724330e-01
  1.20565216e-01  1.28087984e-01  1.51899310e-01  1.55025184e-01
  1.67920369e-01  1.92141519e-01  2.00078073e-01  2.03917228e-01
  2.24930763e-01  2.33454273e-01  2.50677248e-01  2.58813642e-01
  2.82472321e-01  2.89941878e-01  3.03781816e-01  3.07767797e-01
  3.33018705e-01  3.51246832e-01  3.62281984e-01  3.75069358e-01
  3.78343831e-01  4.30667037e-01  4.38797492e-01  4.62293739e-01
  4.71355084e-01  5.14123669e-01  5.26015385e-01  5.58569189e-01
  5.79668068e-01  5.91467228e-01  6.09567495e-01  6.36529810e-01
  6.52435552e-01  6.91429591e-01  6.94576338e-01  7.82430531e-01
  8.37800220e-01  8.49318835e-01  9.08801767e-01  9.37003351e-01]
nelec by numeric integration = 146.00000207812923
    CPU time for vxc     37.60 sec, wall time     15.53 sec
E1 = -4120.240279222589  Ecoul = 1906.885667421395  Exc = -124.83655748092919
cycle= 1 E= -835.5022495413  delta_E= 6.21  |g|= 0.324  |ddm|= 9.31
    CPU time for cycle= 1     37.89 sec, wall time     15.58 sec
  HOMO = -0.0901771264451579  LUMO = 0.0165328495424453
  mo_energy =
[-10.05172747 -10.05124007 -10.03930475 -10.03113015 -10.02278839
 -10.02135379 -10.01901658 -10.00802455 -10.00556857  -9.98999656
  -9.98690469  -9.98273375  -9.98070415  -9.97562383  -9.9597288
  -9.95833925  -9.95338394  -9.93950937  -9.93899888  -9.9237624
  -9.9158651   -9.89468841  -0.84952339  -0.822601    -0.80773455
  -0.76037543  -0.75149408  -0.72944882  -0.72430913  -0.69569721
  -0.68274803  -0.6563426   -0.63148663  -0.611175    -0.58209591
  -0.56531364  -0.54800314  -0.54282057  -0.51656165  -0.49761445
  -0.47570223  -0.46770745  -0.45477659  -0.43553398  -0.4234176
  -0.40659559  -0.40429868  -0.39707768  -0.38619561  -0.38094638
  -0.36566046  -0.35658819  -0.34969013  -0.34462953  -0.33644394
  -0.33120057  -0.322513    -0.31356015  -0.30631724  -0.29132946
  -0.28004182  -0.27002083  -0.2595262   -0.24592099  -0.23715404
  -0.23054829  -0.21523397  -0.20943992  -0.191347    -0.17698181
  -0.16729242  -0.11774355  -0.09017713   0.01653285   0.06077869
   0.07270123   0.09895571   0.14504858   0.17383305   0.19973199
   0.21326005   0.22509713   0.23752448   0.25360434   0.27958611
   0.28204668   0.29889662   0.30548619   0.31936423   0.33166903
   0.33659849   0.3562626    0.35913726   0.38948925   0.39480093
   0.40437049   0.41695774   0.44262034   0.45894128   0.46943758
   0.48105404   0.50292564   0.5302922    0.53950425   0.55316993
   0.57207403   0.58329958   0.61740129   0.64652296   0.65462222
   0.6886337    0.71986502   0.72608167   0.75453137   0.78485537
   0.82030352   0.83281039   0.84823433   0.88013353   0.96952773
   0.97949205   1.01038313   1.12345591   1.14928568]
nelec by numeric integration = 146.00000203988662
    CPU time for vxc     37.93 sec, wall time     15.69 sec
E1 = -4113.630695337137  Ecoul = 1900.211357975609  Exc = -124.68713888140279
cycle= 2 E= -835.417556502107  delta_E= 0.0847  |g|= 0.58  |ddm|=  1.4
    CPU time for cycle= 2     38.40 sec, wall time     15.76 sec
  HOMO = -0.107048195704717  LUMO = -0.00315262284236458
  mo_energy =
[-1.00487997e+01 -1.00337006e+01 -1.00195926e+01 -1.00157107e+01
 -1.00144525e+01 -1.00129408e+01 -1.00116686e+01 -1.00113325e+01
 -1.00092874e+01 -1.00077368e+01 -1.00048518e+01 -1.00045250e+01
 -1.00044889e+01 -1.00032835e+01 -1.00006841e+01 -9.99836547e+00
 -9.99494367e+00 -9.99164595e+00 -9.99071230e+00 -9.97987309e+00
 -9.97155500e+00 -9.95973998e+00 -8.55802229e-01 -8.41441621e-01
 -8.26109717e-01 -7.76600659e-01 -7.64682665e-01 -7.50799278e-01
 -7.36292003e-01 -7.13247734e-01 -6.95522779e-01 -6.85692425e-01
 -6.52949807e-01 -6.12404409e-01 -5.99259619e-01 -5.72249226e-01
 -5.52251171e-01 -5.43317043e-01 -5.37414816e-01 -5.22459987e-01
 -4.84194285e-01 -4.77068872e-01 -4.65120466e-01 -4.48623770e-01
 -4.30122557e-01 -4.15146226e-01 -4.11363663e-01 -4.06415043e-01
 -3.95580727e-01 -3.89394168e-01 -3.84007725e-01 -3.68866935e-01
 -3.61649594e-01 -3.50809228e-01 -3.48157802e-01 -3.37683185e-01
 -3.29030730e-01 -3.26018294e-01 -3.14390248e-01 -3.04754429e-01
 -2.89628902e-01 -2.82707385e-01 -2.69383645e-01 -2.60942336e-01
 -2.52020008e-01 -2.49230981e-01 -2.35211733e-01 -2.30867026e-01
 -2.07846669e-01 -1.91570563e-01 -1.76188748e-01 -1.46037414e-01
 -1.07048196e-01 -3.15262284e-03  3.40599591e-02  7.57465649e-02
  9.69054144e-02  1.41490358e-01  1.53329519e-01  1.87656110e-01
  1.97901373e-01  2.12303728e-01  2.27516729e-01  2.35994735e-01
  2.60923516e-01  2.75347698e-01  2.87269648e-01  2.97332181e-01
  2.98806771e-01  3.32105948e-01  3.39023213e-01  3.54666076e-01
  3.68234167e-01  3.71070582e-01  3.75577875e-01  3.88546037e-01
  4.26207925e-01  4.29491792e-01  4.45663389e-01  4.52453716e-01
  4.80612685e-01  4.96641450e-01  5.10921761e-01  5.26612383e-01
  5.34035557e-01  5.75848277e-01  5.85444176e-01  6.07016784e-01
  6.26408746e-01  6.56565058e-01  6.69920771e-01  7.05378504e-01
  7.24798611e-01  7.39634595e-01  7.61902356e-01  7.90468609e-01
  8.08345815e-01  8.32514196e-01  8.49795997e-01  9.38837336e-01
  9.92854175e-01  9.93912942e-01  1.04547932e+00  1.09057222e+00]
nelec by numeric integration = 146.00000208758436
    CPU time for vxc     38.27 sec, wall time     15.75 sec
E1 = -4115.7952487636385  Ecoul = 1902.2885164947827  Exc = -124.70561250922026
cycle= 3 E= -835.523425037253  delta_E= -0.106  |g|= 0.248  |ddm|= 1.21
    CPU time for cycle= 3     38.72 sec, wall time     15.82 sec
  HOMO = -0.115948280793751  LUMO = -0.0147605323633961
  mo_energy =
[-10.03459582 -10.03406708 -10.03328074 -10.02829919 -10.02599464
 -10.02499071 -10.02444164 -10.02442036 -10.02271906 -10.02180663
 -10.02073543 -10.01952979 -10.01588581 -10.01523414 -10.01436017
 -10.0132043  -10.0090528  -10.00769504 -10.00720781 -10.00686587
 -10.00141859  -9.99332745  -0.87078028  -0.84813704  -0.83622779
  -0.78592919  -0.76872721  -0.76167781  -0.75304529  -0.72143781
  -0.69989525  -0.68920664  -0.66066334  -0.62572773  -0.60968578
  -0.57957591  -0.55803547  -0.55089143  -0.54735409  -0.53099594
  -0.49110637  -0.4874009   -0.47173591  -0.45628641  -0.43841674
  -0.42301165  -0.41888082  -0.41157836  -0.39875907  -0.39436281
  -0.39160118  -0.38216584  -0.37268239  -0.36406066  -0.35511923
  -0.34170029  -0.33695832  -0.33518816  -0.3217999   -0.32068685
  -0.29682414  -0.28804258  -0.27967701  -0.27056509  -0.25986156
  -0.25369423  -0.24797158  -0.23652564  -0.2177653   -0.20123986
  -0.18702764  -0.1514069   -0.11594828  -0.01476053   0.02608212
   0.06707992   0.0862723    0.13271659   0.14169474   0.17660721
   0.18610905   0.20634453   0.22271025   0.2302726    0.25587116
   0.26652688   0.2858724    0.29112133   0.29736856   0.33082267
   0.33283692   0.34277189   0.36217711   0.36785483   0.37202076
   0.38183812   0.41733497   0.42382555   0.43910925   0.44429217
   0.46568352   0.48780936   0.4971005    0.51627215   0.51815054
   0.56240158   0.57384876   0.59532882   0.61183616   0.64493634
   0.66088685   0.69850602   0.71622353   0.72892227   0.74379819
   0.77777037   0.7941477    0.83046116   0.83362775   0.92683688
   0.98061686   0.98248925   1.05874221   1.08203963]
nelec by numeric integration = 146.0000020748907
    CPU time for vxc     37.97 sec, wall time     15.62 sec
E1 = -4116.758134282397  Ecoul = 1903.2513397759772  Exc = -124.72614527824874
cycle= 4 E= -835.544020043845  delta_E= -0.0206  |g|= 0.0948  |ddm|= 0.497
    CPU time for cycle= 4     38.38 sec, wall time     15.69 sec
  HOMO = -0.117150693776785  LUMO = -0.0148325532996579
  mo_energy =
[-10.04250364 -10.03626673 -10.0333321  -10.03120118 -10.03043509
 -10.02506629 -10.02337872 -10.0231503  -10.02282443 -10.02237227
 -10.02119053 -10.02098325 -10.01876251 -10.01832866 -10.01719442
 -10.0140561  -10.0110105  -10.0101514  -10.008201   -10.00780296
 -10.00528497  -9.99819814  -0.86748149  -0.85237388  -0.83761439
  -0.78682787  -0.77261752  -0.76046377  -0.75087272  -0.72244936
  -0.70082855  -0.69293992  -0.66123183  -0.6255735   -0.60953556
  -0.58140275  -0.56024235  -0.5523875   -0.54586399  -0.53099168
  -0.49150499  -0.48706264  -0.47267867  -0.4562364   -0.43972472
  -0.42379654  -0.41895583  -0.41316673  -0.40126732  -0.39697421
  -0.39211637  -0.37980742  -0.37211859  -0.36270749  -0.35844053
  -0.34479269  -0.33858139  -0.33646621  -0.3227402   -0.31892142
  -0.29668846  -0.29035088  -0.28081369  -0.27069709  -0.26195808
  -0.2559145   -0.24716125  -0.23965948  -0.21678206  -0.20324823
  -0.1894638   -0.1529468   -0.11715069  -0.01483255   0.02537442
   0.0644368    0.08325075   0.13112701   0.14058805   0.17590274
   0.18722942   0.20815738   0.22174659   0.22894065   0.25516779
   0.26483575   0.28305216   0.28915182   0.29528054   0.32841149
   0.33092558   0.34442069   0.36127714   0.36292302   0.36897303
   0.38068283   0.41537081   0.42108609   0.43809017   0.44388319
   0.46713953   0.48879941   0.49771041   0.51482917   0.5214165
   0.56321114   0.57180052   0.59363648   0.61284097   0.64420874
   0.66192895   0.69454851   0.71493315   0.72902198   0.74694676
   0.77967815   0.79582603   0.82566327   0.83675133   0.92785706
   0.97680364   0.97797392   1.05592529   1.08201804]
nelec by numeric integration = 146.00000207210067
    CPU time for vxc     38.10 sec, wall time     15.72 sec
E1 = -4116.700157824001  Ecoul = 1903.1942360092555  Exc = -124.73006301569114
cycle= 5 E= -835.547065089613  delta_E= -0.00305  |g|= 0.0258  |ddm|= 0.166
    CPU time for cycle= 5     38.47 sec, wall time     15.78 sec
  HOMO = -0.116886473817012  LUMO = -0.0141460521515823
  mo_energy =
[-10.04142777 -10.03301893 -10.03208888 -10.03133036 -10.02652839
 -10.02429644 -10.02368666 -10.02126558 -10.02109964 -10.01983859
 -10.01908175 -10.01799964 -10.01626923 -10.01531432 -10.01386192
 -10.01199439 -10.01162517 -10.00966476 -10.00954143 -10.00623029
 -10.0007234   -9.99984453  -0.86683366  -0.85049531  -0.83599604
  -0.78540608  -0.77076547  -0.75951647  -0.75008906  -0.72152754
  -0.70011919  -0.69190578  -0.66033742  -0.62524427  -0.6087642
  -0.5801659   -0.5591038   -0.55121812  -0.54540282  -0.53023262
  -0.49072361  -0.48633832  -0.47177892  -0.45569359  -0.43844634
  -0.42294532  -0.41808361  -0.41244991  -0.40008732  -0.39575658
  -0.3912735   -0.37936212  -0.37133759  -0.36263563  -0.35712847
  -0.34303556  -0.33717017  -0.33597792  -0.32187949  -0.31896424
  -0.29642072  -0.28917506  -0.27950347  -0.26967089  -0.26085077
  -0.25476923  -0.24608567  -0.23852803  -0.21663509  -0.20232497
  -0.18852712  -0.15252545  -0.11688647  -0.01414605   0.02605306
   0.06557808   0.08462891   0.13249269   0.14227403   0.17696252
   0.18808632   0.20825098   0.22271456   0.23034377   0.25554443
   0.26622929   0.28411573   0.29014962   0.29582668   0.32962818
   0.33185235   0.34511892   0.36190375   0.36546293   0.370613
   0.38163138   0.41668178   0.42244112   0.43895551   0.44466689
   0.46727609   0.48913243   0.49771412   0.51618747   0.52152838
   0.56359978   0.57337017   0.59527347   0.6136684    0.64492231
   0.66220854   0.69644159   0.71564217   0.72940916   0.74711103
   0.77995106   0.79616405   0.8267878    0.83706454   0.92895388
   0.97998057   0.98135079   1.05687955   1.08311011]
nelec by numeric integration = 146.00000207309293
    CPU time for vxc     38.40 sec, wall time     15.76 sec
E1 = -4116.632243458345  Ecoul = 1903.1216854651434  Exc = -124.7256457517517
cycle= 6 E= -835.547284004131  delta_E= -0.000219  |g|= 0.00787  |ddm|= 0.0437
    CPU time for cycle= 6     38.86 sec, wall time     15.83 sec
  HOMO = -0.116485079144746  LUMO = -0.0135053382238288
  mo_energy =
[-10.04032543 -10.03289217 -10.03107437 -10.03012056 -10.02724835
 -10.02371922 -10.02280354 -10.02082086 -10.02051571 -10.01971988
 -10.01963396 -10.01744293 -10.01649938 -10.01492712 -10.01470154
 -10.01257908 -10.00977885 -10.00876478 -10.00835847 -10.00735116
 -10.00075146  -9.99994962  -0.86678892  -0.85013258  -0.83588386
  -0.78523504  -0.77046911  -0.75956831  -0.7498977   -0.72123544
  -0.69954692  -0.69146969  -0.66016737  -0.62465963  -0.60848874
  -0.58000568  -0.55883447  -0.55099515  -0.54540708  -0.53010095
  -0.49050516  -0.48612923  -0.47158812  -0.4555119   -0.43835316
  -0.42262086  -0.41801939  -0.41210012  -0.39984621  -0.39560225
  -0.39119657  -0.37928606  -0.37124999  -0.36216598  -0.35672578
  -0.34308335  -0.33705737  -0.33559278  -0.32168674  -0.31861041
  -0.29640547  -0.28911165  -0.27931567  -0.26959413  -0.26061511
  -0.25475318  -0.24605519  -0.23825714  -0.21649955  -0.20205263
  -0.18812052  -0.15211153  -0.11648508  -0.01350534   0.02652041
   0.06591159   0.08496736   0.13282166   0.14221812   0.17712545
   0.18805614   0.20824813   0.22274127   0.23017451   0.25577986
   0.26640897   0.28456901   0.29041575   0.29621802   0.32966668
   0.33222441   0.3450968    0.36236055   0.36528113   0.37044484
   0.38168448   0.41703334   0.42260549   0.43923254   0.44471702
   0.46788725   0.48941768   0.49825567   0.51630964   0.52182098
   0.56420201   0.57348969   0.59538668   0.61392659   0.64545985
   0.66244555   0.69658771   0.71610518   0.72981528   0.74741856
   0.78021431   0.79661806   0.82755411   0.83715207   0.92893048
   0.97975619   0.98106332   1.05734176   1.08305011]
nelec by numeric integration = 146.0000020726668
    CPU time for vxc     38.20 sec, wall time     15.70 sec
E1 = -4116.612552016426  Ecoul = 1903.1018718703895  Exc = -124.72554439756883
cycle= 7 E= -835.547304802782  delta_E= -2.08e-05  |g|= 0.00245  |ddm|= 0.0137
    CPU time for cycle= 7     38.62 sec, wall time     15.77 sec
  HOMO = -0.116496207696022  LUMO = -0.013510992150959
  mo_energy =
[-10.04043217 -10.03298716 -10.03100465 -10.03030274 -10.02712855
 -10.0236676  -10.02287956 -10.02066413 -10.02026857 -10.01974692
 -10.01931817 -10.01752845 -10.01676762 -10.01495492 -10.01450327
 -10.01290188 -10.00998736 -10.00920061 -10.00859493 -10.00711312
 -10.00014192  -9.99961299  -0.86673159  -0.85012696  -0.83589228
  -0.78524286  -0.770519    -0.75949405  -0.74992884  -0.72121093
  -0.69955157  -0.69147055  -0.66013502  -0.62467515  -0.60850227
  -0.58000319  -0.5588445   -0.55097946  -0.54532029  -0.53007293
  -0.49050115  -0.48613405  -0.47158242  -0.45547686  -0.43836321
  -0.42262615  -0.41800397  -0.4121235   -0.39988974  -0.39560787
  -0.39117981  -0.37923447  -0.37125716  -0.36217885  -0.35673119
  -0.34312388  -0.33706579  -0.33559841  -0.32165031  -0.31858794
  -0.29632387  -0.28907422  -0.27934702  -0.2695577   -0.26060617
  -0.25474714  -0.24607745  -0.23825791  -0.21641988  -0.202019
  -0.18807902  -0.15211275  -0.11649621  -0.01351099   0.02652114
   0.06595998   0.08500475   0.13277759   0.14221086   0.17714071
   0.18810975   0.20834674   0.22275845   0.23020428   0.25577642
   0.26639559   0.28455438   0.29040443   0.29619208   0.32966472
   0.33222372   0.34517223   0.36232224   0.36521276   0.37047651
   0.38169601   0.41706515   0.42260455   0.4391921    0.44477915
   0.46778724   0.48948564   0.49829761   0.51633192   0.52185896
   0.56418264   0.57355052   0.59540271   0.61389868   0.64542977
   0.66251893   0.69658186   0.71611546   0.72985407   0.74744778
   0.78029463   0.79659456   0.8274751    0.83723582   0.92900312
   0.97977855   0.98095999   1.05731308   1.08308232]
nelec by numeric integration = 146.00000207268744
    CPU time for vxc     37.72 sec, wall time     15.50 sec
E1 = -4116.61254914792  Ecoul = 1903.101876413309  Exc = -124.72555368763994
cycle= 8 E= -835.547306681427  delta_E= -1.88e-06  |g|= 0.000724  |ddm|= 0.004
    CPU time for cycle= 8     38.18 sec, wall time     15.58 sec
  HOMO = -0.116518599769346  LUMO = -0.0135186979492926
  mo_energy =
[-10.0405086  -10.03303611 -10.0311065  -10.03025028 -10.02718972
 -10.02371021 -10.02289098 -10.02076381 -10.02023658 -10.01978434
 -10.01928715 -10.01747107 -10.01683596 -10.01489318 -10.01460527
 -10.01284575 -10.0099652  -10.00908265 -10.00860888 -10.00704899
 -10.00031072  -9.99982503  -0.86672446  -0.85018999  -0.83591873
  -0.78525244  -0.77056223  -0.75951153  -0.74991455  -0.72122259
  -0.69957974  -0.69149526  -0.66014722  -0.62470013  -0.60850098
  -0.58001614  -0.55887127  -0.55102028  -0.5453258   -0.53008316
  -0.49052136  -0.4861363   -0.47160944  -0.45548441  -0.43838763
  -0.42264018  -0.41800852  -0.41214308  -0.39992629  -0.39562622
  -0.39119101  -0.37922513  -0.3712469   -0.36218075  -0.35677672
  -0.34313129  -0.33707932  -0.33561487  -0.32166351  -0.31860072
  -0.29629441  -0.28910247  -0.27935712  -0.26958267  -0.26062661
  -0.25475334  -0.24606972  -0.23827759  -0.21641818  -0.20204025
  -0.18811308  -0.15213438  -0.1165186   -0.0135187    0.02651119
   0.06593425   0.08497199   0.1327511    0.14220318   0.17714978
   0.188092     0.20836361   0.22275229   0.23017754   0.25580976
   0.26638159   0.28451624   0.29039583   0.29616703   0.32965663
   0.33219385   0.34517494   0.36231963   0.36522674   0.37045113
   0.38169151   0.41702025   0.42256423   0.43918301   0.44477159
   0.46781367   0.48944169   0.49825525   0.51632957   0.52186008
   0.56416088   0.57351705   0.59537711   0.61391788   0.64539801
   0.66248022   0.69655298   0.71607829   0.72981387   0.7474612
   0.78027      0.79660415   0.82742432   0.83724909   0.92896273
   0.97972006   0.98094892   1.05730415   1.08309569]
nelec by numeric integration = 146.00000207281497
    CPU time for vxc     37.85 sec, wall time     15.62 sec
E1 = -4116.614632343294  Ecoul = 1903.1040241827418  Exc = -124.72561840939679
cycle= 9 E= -835.547306829126  delta_E= -1.48e-07  |g|= 0.000339  |ddm|= 0.00139
    CPU time for cycle= 9     38.34 sec, wall time     15.70 sec
  HOMO = -0.116531282232789  LUMO = -0.0135296408870146
  mo_energy =
[-10.04049385 -10.03302016 -10.03109475 -10.0302843  -10.02718357
 -10.02367307 -10.02293133 -10.02071696 -10.02027028 -10.01984464
 -10.01935361 -10.01751843 -10.01678118 -10.01490206 -10.01458524
 -10.01281451 -10.00999672 -10.00911896 -10.00861496 -10.00710339
 -10.00031138  -9.99977291  -0.86674377  -0.85018698  -0.83591086
  -0.78525999  -0.77056098  -0.7595084   -0.74992355  -0.72123087
  -0.69958781  -0.69151108  -0.66014993  -0.62470884  -0.60851037
  -0.5800205   -0.5588723   -0.55101936  -0.54533209  -0.53009098
  -0.49051903  -0.48614434  -0.47160843  -0.45548609  -0.43838618
  -0.42264781  -0.41801547  -0.41214811  -0.3999248   -0.3956259
  -0.39119069  -0.37923929  -0.37124925  -0.36218982  -0.3567751
  -0.34312607  -0.33707816  -0.33562244  -0.3216705   -0.31860342
  -0.29630316  -0.28910685  -0.27936123  -0.26957981  -0.26063378
  -0.25474987  -0.2460739   -0.23828187  -0.21642478  -0.2020466
  -0.18811979  -0.15214611  -0.11653128  -0.01352964   0.02650217
   0.0659278    0.08496853   0.13274822   0.14220494   0.17713356
   0.18809868   0.20835741   0.22275238   0.23018248   0.25579891
   0.26637833   0.28451306   0.29039334   0.2961602    0.32965668
   0.33218859   0.3451626    0.36230594   0.36523019   0.37044929
   0.38168517   0.41702042   0.42257298   0.43918182   0.44477487
   0.46779627   0.48944915   0.49825837   0.51632323   0.52184138
   0.56415184   0.57351055   0.59537392   0.61390236   0.64539594
   0.66248326   0.69656277   0.71607764   0.72981448   0.74743655
   0.78026464   0.79658555   0.82742122   0.83722755   0.9289781
   0.97972874   0.98097222   1.05727793   1.0830745 ]
nelec by numeric integration = 146.00000207277122
    CPU time for vxc     37.87 sec, wall time     15.67 sec
E1 = -4116.614959215379  Ecoul = 1903.1043558396868  Exc = -124.72562323497017
cycle= 10 E= -835.547306869839  delta_E= -4.07e-08  |g|= 8.32e-05  |ddm|= 0.000596
    CPU time for cycle= 10     38.33 sec, wall time     15.75 sec
  HOMO = -0.116531768039563  LUMO = -0.0135293714654122
  mo_energy =
[-10.0404864  -10.0330192  -10.03109132 -10.03027986 -10.02718142
 -10.02369163 -10.02291999 -10.02074228 -10.02028249 -10.0198405
 -10.01935975 -10.01751467 -10.01677713 -10.0149252  -10.01460066
 -10.01282868 -10.00999594 -10.00910637 -10.00861882 -10.00709722
 -10.00029492  -9.99977852  -0.86674846  -0.85018387  -0.83591748
  -0.78526164  -0.77055921  -0.75951578  -0.74992823  -0.72123312
  -0.699586    -0.69150919  -0.66015416  -0.62470499  -0.60851343
  -0.58002218  -0.5588729   -0.55101763  -0.54533797  -0.53009329
  -0.49052173  -0.48614647  -0.47160861  -0.45549172  -0.438385
  -0.42264796  -0.41801591  -0.4121475   -0.39992264  -0.39562832
  -0.3911927   -0.37924413  -0.37125459  -0.36219057  -0.35677287
  -0.34312846  -0.33708176  -0.33562102  -0.32166939  -0.31860655
  -0.29631032  -0.2891045   -0.2793618   -0.2695841   -0.26063361
  -0.25475385  -0.24607953  -0.23828216  -0.21643161  -0.20204795
  -0.18811863  -0.15214625  -0.11653177  -0.01352937   0.02650082
   0.06592703   0.08496985   0.13274967   0.14220072   0.17713239
   0.18809163   0.20834822   0.22275038   0.23018452   0.25579431
   0.26637651   0.28451526   0.2903904    0.29616245   0.32965363
   0.33219217   0.34515692   0.36230686   0.36522706   0.37045253
   0.38168403   0.41702342   0.42257086   0.43918054   0.44476727
   0.46779833   0.48944322   0.49825733   0.51631984   0.52183922
   0.56415516   0.57351392   0.59537398   0.61390066   0.64539744
   0.66247776   0.69655659   0.71607635   0.72981124   0.74743558
   0.78025894   0.79658387   0.82742461   0.83722418   0.92896982
   0.97973225   0.98096585   1.05727658   1.08306723]
nelec by numeric integration = 146.00000207277176
    CPU time for vxc     38.54 sec, wall time     15.84 sec
E1 = -4116.615126274263  Ecoul = 1903.1045260677172  Exc = -124.72562640593644
cycle= 11 E= -835.54730687166  delta_E= -1.82e-09  |g|= 4.75e-05  |ddm|= 0.000183
    CPU time for cycle= 11     39.05 sec, wall time     15.92 sec
  HOMO = -0.116530989707936  LUMO = -0.0135275422607604
  mo_energy =
[-10.04048885 -10.03301864 -10.03109149 -10.03027992 -10.02718129
 -10.02368561 -10.02292187 -10.0207312  -10.02027614 -10.01983999
 -10.01935212 -10.01750899 -10.01678073 -10.01491662 -10.01459321
 -10.01282309 -10.00998768 -10.00911453 -10.00861453 -10.00709865
 -10.00030084  -9.99978063  -0.86674582  -0.85018378  -0.83591436
  -0.78525993  -0.77055884  -0.75951318  -0.74992577  -0.72123088
  -0.69958481  -0.69150874  -0.66015253  -0.62470411  -0.60851162
  -0.58002042  -0.55887158  -0.5510174   -0.54533593  -0.53009186
  -0.49052059  -0.4861445   -0.4716076   -0.45548998  -0.43838441
  -0.42264742  -0.41801506  -0.41214668  -0.39992205  -0.39562636
  -0.39119175  -0.37924199  -0.37125286  -0.36218902  -0.35677249
  -0.34312645  -0.33707976  -0.33562053  -0.32166894  -0.31860478
  -0.29630932  -0.28910481  -0.2793608   -0.2695825   -0.2606324
  -0.25475232  -0.24607731  -0.23828141  -0.21642959  -0.20204641
  -0.18811746  -0.1521454   -0.11653099  -0.01352754   0.02650232
   0.06592897   0.08497094   0.1327501    0.1422027    0.17713414
   0.18809376   0.20834983   0.2227511    0.23018426   0.2557952
   0.26637796   0.2845155    0.29039156   0.29616256   0.3296557
   0.33219237   0.34515952   0.36230752   0.36522918   0.37045234
   0.38168564   0.41702375   0.42257192   0.43918077   0.44476944
   0.46779787   0.48944564   0.49825837   0.51632211   0.52184102
   0.56415616   0.57351377   0.59537502   0.61390173   0.64539875
   0.66248077   0.69656015   0.71607797   0.72981392   0.74743777
   0.78026212   0.79658553   0.82742462   0.83722605   0.92897247
   0.97973207   0.98096808   1.05727809   1.08307057]
nelec by numeric integration = 146.0000020727693
    CPU time for vxc     37.84 sec, wall time     15.59 sec
E1 = -4116.614961195637  Ecoul = 1903.1043575893327  Exc = -124.72562300691078
cycle= 12 E= -835.547306872392  delta_E= -7.32e-10  |g|= 1.33e-05  |ddm|= 8.42e-05
    CPU time for cycle= 12     38.23 sec, wall time     15.66 sec
  HOMO = -0.116530105403658  LUMO = -0.0135266549725022
  mo_energy =
[-10.04048818 -10.03301719 -10.03109035 -10.03027711 -10.02717941
 -10.02368579 -10.02292057 -10.0207332  -10.02027407 -10.01983873
 -10.01935089 -10.01751231 -10.01678211 -10.01491351 -10.01459159
 -10.01282447 -10.00998827 -10.00910828 -10.0086135  -10.00709792
 -10.00029935  -9.99977903  -0.86674423  -0.85018299  -0.83591416
  -0.78525947  -0.77055818  -0.7595127   -0.74992442  -0.72123038
  -0.69958403  -0.69150804  -0.66015182  -0.62470359  -0.60851087
  -0.58002023  -0.55887127  -0.55101676  -0.54533496  -0.53009099
  -0.49052012  -0.48614395  -0.4716073   -0.45548916  -0.43838418
  -0.42264615  -0.41801455  -0.41214621  -0.39992182  -0.39562645
  -0.39119126  -0.37924059  -0.37125198  -0.36218821  -0.3567718
  -0.34312726  -0.3370793   -0.33561979  -0.32166822  -0.31860398
  -0.29630835  -0.28910411  -0.27936016  -0.26958188  -0.26063173
  -0.25475238  -0.24607626  -0.23828086  -0.21642857  -0.20204586
  -0.18811686  -0.15214465  -0.11653011  -0.01352665   0.02650309
   0.06592931   0.08497148   0.13275116   0.14220351   0.1771347
   0.18809435   0.20835111   0.22275138   0.23018438   0.25579598
   0.26637851   0.28451624   0.29039205   0.29616302   0.32965537
   0.33219281   0.34516054   0.36230842   0.36522812   0.37045247
   0.38168561   0.41702434   0.42257193   0.43918154   0.44476977
   0.46779969   0.48944624   0.49825904   0.51632238   0.52184265
   0.56415693   0.57351493   0.59537578   0.61390329   0.64539928
   0.66248114   0.69655947   0.71607864   0.72981441   0.74743894
   0.78026273   0.79658709   0.82742544   0.83722743   0.92897273
   0.97973321   0.98096721   1.05727923   1.08307232]
nelec by numeric integration = 146.00000207277057
    CPU time for vxc     37.54 sec, wall time     15.59 sec
E1 = -4116.614893167691  Ecoul = 1903.1042884232004  Exc = -124.72562186878196
cycle= 13 E= -835.547306872449  delta_E= -5.73e-11  |g|= 7.86e-06  |ddm|= 3.01e-05
    CPU time for cycle= 13     37.94 sec, wall time     15.65 sec
  HOMO = -0.116530998159208  LUMO = -0.0135275302659463
  mo_energy =
[-10.04048855 -10.03301907 -10.0310916  -10.03028015 -10.0271816
 -10.02368574 -10.02292166 -10.02073082 -10.02027651 -10.01983833
 -10.01935291 -10.01750844 -10.0167802  -10.01491673 -10.01459507
 -10.0128232  -10.00999009 -10.009114   -10.00861446 -10.00709798
 -10.00030089  -9.9997803   -0.86674592  -0.85018399  -0.83591454
  -0.78525997  -0.77055888  -0.75951315  -0.74992592  -0.72123103
  -0.69958509  -0.69150844  -0.66015223  -0.62470454  -0.60851157
  -0.58002062  -0.55887177  -0.55101763  -0.54533583  -0.53009192
  -0.49052056  -0.48614468  -0.47160777  -0.45548978  -0.43838463
  -0.42264742  -0.41801505  -0.41214674  -0.3999223   -0.39562647
  -0.3911918   -0.37924192  -0.37125272  -0.36218923  -0.35677263
  -0.34312664  -0.33707983  -0.33562059  -0.32166905  -0.31860497
  -0.29630845  -0.28910481  -0.27936086  -0.26958247  -0.26063245
  -0.25475224  -0.24607736  -0.23828127  -0.21642924  -0.20204653
  -0.18811766  -0.15214521  -0.116531    -0.01352753   0.02650245
   0.06592882   0.08497074   0.13274996   0.14220264   0.17713414
   0.18809385   0.20835051   0.22275118   0.23018404   0.25579585
   0.26637791   0.28451544   0.29039186   0.29616265   0.3296556
   0.33219214   0.34515954   0.3623075    0.36522912   0.37045204
   0.3816855    0.41702339   0.42257197   0.4391811    0.44476991
   0.46779802   0.48944531   0.49825811   0.51632221   0.52184081
   0.56415576   0.57351359   0.5953748    0.61390183   0.6453984
   0.66248029   0.69655993   0.71607768   0.72981339   0.74743753
   0.78026193   0.79658551   0.82742463   0.83722607   0.92897247
   0.97973167   0.98096825   1.05727873   1.08307077]
nelec by numeric integration = 146.00000207276997
    CPU time for vxc     38.12 sec, wall time     15.68 sec
E1 = -4116.614987166311  Ecoul = 1903.104384249269  Exc = -124.72562369615927
Extra cycle  E= -835.547306872378  delta_E= 7.09e-11  |g|= 1.54e-05  |ddm|= 3.4e-05
    CPU time for scf_cycle    584.59 sec, wall time    238.03 sec
    CPU time for SCF    584.59 sec, wall time    238.03 sec
converged SCF energy = -835.547306872378
nelec by numeric integration = 146.00000207276997
    CPU time for vxc     38.36 sec, wall time     15.77 sec
 ** Mulliken pop  **
pop of  0 C 1s            1.99070
pop of  0 C 2s            1.13101
pop of  0 C 2px           0.98765
pop of  0 C 2py           0.95035
pop of  0 C 2pz           0.92686
pop of  1 C 1s            1.99042
pop of  1 C 2s            1.07689
pop of  1 C 2px           1.01008
pop of  1 C 2py           0.97962
pop of  1 C 2pz           0.97039
pop of  2 C 1s            1.99104
pop of  2 C 2s            1.11087
pop of  2 C 2px           1.01593
pop of  2 C 2py           0.96428
pop of  2 C 2pz           1.00256
pop of  3 C 1s            1.99113
pop of  3 C 2s            1.11659
pop of  3 C 2px           1.01391
pop of  3 C 2py           0.96603
pop of  3 C 2pz           0.95696
pop of  4 C 1s            1.99051
pop of  4 C 2s            1.09606
pop of  4 C 2px           1.02039
pop of  4 C 2py           0.97003
pop of  4 C 2pz           1.04955
pop of  5 C 1s            1.99122
pop of  5 C 2s            1.13612
pop of  5 C 2px           0.98082
pop of  5 C 2py           0.94664
pop of  5 C 2pz           1.00727
pop of  6 C 1s            1.99107
pop of  6 C 2s            1.17766
pop of  6 C 2px           0.97845
pop of  6 C 2py           0.97282
pop of  6 C 2pz           0.92388
pop of  7 C 1s            1.99148
pop of  7 C 2s            1.14249
pop of  7 C 2px           0.97752
pop of  7 C 2py           0.98665
pop of  7 C 2pz           0.95883
pop of  8 C 1s            1.99034
pop of  8 C 2s            1.07651
pop of  8 C 2px           1.00488
pop of  8 C 2py           0.97902
pop of  8 C 2pz           0.95836
pop of  9 C 1s            1.99109
pop of  9 C 2s            1.06801
pop of  9 C 2px           1.00332
pop of  9 C 2py           0.98269
pop of  9 C 2pz           0.98171
pop of  10 C 1s           1.99074
pop of  10 C 2s           1.14689
pop of  10 C 2px          0.99342
pop of  10 C 2py          0.94422
pop of  10 C 2pz          0.99050
pop of  11 C 1s           1.99142
pop of  11 C 2s           1.10577
pop of  11 C 2px          0.99677
pop of  11 C 2py          0.98609
pop of  11 C 2pz          0.98564
pop of  12 C 1s           1.99065
pop of  12 C 2s           1.11393
pop of  12 C 2px          1.00851
pop of  12 C 2py          0.93794
pop of  12 C 2pz          0.97085
pop of  13 C 1s           1.99105
pop of  13 C 2s           1.15750
pop of  13 C 2px          0.95937
pop of  13 C 2py          0.92249
pop of  13 C 2pz          0.95107
pop of  14 C 1s           1.99137
pop of  14 C 2s           1.21056
pop of  14 C 2px          0.95767
pop of  14 C 2py          0.92334
pop of  14 C 2pz          0.99566
pop of  15 C 1s           1.99242
pop of  15 C 2s           1.13369
pop of  15 C 2px          1.07145
pop of  15 C 2py          0.91686
pop of  15 C 2pz          1.04057
pop of  16 C 1s           1.99067
pop of  16 C 2s           1.13720
pop of  16 C 2px          1.00308
pop of  16 C 2py          0.92940
pop of  16 C 2pz          0.93028
pop of  17 C 1s           1.99046
pop of  17 C 2s           1.08921
pop of  17 C 2px          0.98349
pop of  17 C 2py          0.97324
pop of  17 C 2pz          0.96356
pop of  18 C 1s           1.99107
pop of  18 C 2s           1.11991
pop of  18 C 2px          1.00536
pop of  18 C 2py          0.97994
pop of  18 C 2pz          0.98881
pop of  19 C 1s           1.99086
pop of  19 C 2s           1.13462
pop of  19 C 2px          0.99117
pop of  19 C 2py          0.97263
pop of  19 C 2pz          0.98216
pop of  20 C 1s           1.99134
pop of  20 C 2s           1.11956
pop of  20 C 2px          0.99645
pop of  20 C 2py          1.01018
pop of  20 C 2pz          0.95617
pop of  21 C 1s           1.99139
pop of  21 C 2s           1.22330
pop of  21 C 2px          0.96310
pop of  21 C 2py          0.95708
pop of  21 C 2pz          0.90859
pop of  22 H 1s           0.92151
pop of  23 H 1s           0.97706
pop of  24 H 1s           0.88584
pop of  25 H 1s           0.91823
pop of  26 H 1s           0.91292
pop of  27 H 1s           0.95032
pop of  28 H 1s           0.91335
pop of  29 H 1s           0.94159
pop of  30 H 1s           0.90018
pop of  31 H 1s           0.88318
pop of  32 H 1s           0.91563
pop of  33 H 1s           0.91703
pop of  34 H 1s           0.92394
pop of  35 H 1s           0.93783
 ** Mulliken atomic charges  **
charge of    0C =      0.01343
charge of    1C =     -0.02740
charge of    2C =     -0.08468
charge of    3C =     -0.04462
charge of    4C =     -0.12655
charge of    5C =     -0.06206
charge of    6C =     -0.04388
charge of    7C =     -0.05698
charge of    8C =     -0.00912
charge of    9C =     -0.02683
charge of   10C =     -0.06577
charge of   11C =     -0.06569
charge of   12C =     -0.02188
charge of   13C =      0.01851
charge of   14C =     -0.07860
charge of   15C =     -0.15500
charge of   16C =      0.00938
charge of   17C =      0.00004
charge of   18C =     -0.08508
charge of   19C =     -0.07144
charge of   20C =     -0.07370
charge of   21C =     -0.04346
charge of   22H =      0.07849
charge of   23H =      0.02294
charge of   24H =      0.11416
charge of   25H =      0.08177
charge of   26H =      0.08708
charge of   27H =      0.04968
charge of   28H =      0.08665
charge of   29H =      0.05841
charge of   30H =      0.09982
charge of   31H =      0.11682
charge of   32H =      0.08437
charge of   33H =      0.08297
charge of   34H =      0.07606
charge of   35H =      0.06217
Dipole moment(X, Y, Z, Debye):  0.12566, -0.59373,  0.07054
nelec by numeric integration = 146.00000207276997
    CPU time for vxc     38.35 sec, wall time     15.87 sec
E1 = -4116.614987166311  Ecoul = 1903.1043842492695  Exc = -124.72562369615927
nelec by numeric integration = 146.00000207276997
    CPU time for vxc     38.39 sec, wall time     15.73 sec
E1 = -4116.614987166311  Ecoul = 1903.1043842492688  Exc = -124.72562369615927
