System: uname_result(system='Linux', node='cosmopc18', release='5.15.0-97-generic', version='#107-Ubuntu SMP Wed Feb 7 13:26:48 UTC 2024', machine='x86_64')  Threads 4
Python 3.11.8 (main, Feb 26 2024, 21:39:34) [GCC 11.2.0]
numpy 1.26.4  scipy 1.11.4
Date: Tue Apr  9 10:35:03 2024
PySCF version 2.3.0
PySCF path  /home/saade/miniconda3/envs/tutorial/lib/python3.11/site-packages/pyscf

[ENV] PYSCFAD_BACKEND torch
[CONFIG] conf_file None
[INPUT] verbose = 5
[INPUT] max_memory = 4000 
[INPUT] num. atoms = 36
[INPUT] num. electrons = 146
[INPUT] charge = 0
[INPUT] spin (= nelec alpha-beta = 2S) = 0
[INPUT] symmetry False subgroup None
[INPUT] Mole.unit = angstrom
[INPUT] Symbol           X                Y                Z      unit          X                Y                Z       unit  Magmom
[INPUT]  1 C     -0.068040000000   3.481686000000   0.637958000000 AA   -0.128576965515   6.579432991732   1.205565898975 Bohr   0.0
[INPUT]  2 C      0.108558000000   3.786814000000  -0.813401000000 AA    0.205144888631   7.156041344669  -1.537105119447 Bohr   0.0
[INPUT]  3 C     -0.071398000000   4.852356000000   1.286208000000 AA   -0.134922665842   9.169623898890   2.430580859225 Bohr   0.0
[INPUT]  4 C      0.022032000000   2.412911000000   1.379114000000 AA    0.041634445976   4.559740952950   2.606147754553 Bohr   0.0
[INPUT]  5 C      0.125720000000   5.077525000000  -1.498506000000 AA    0.237576368380   9.595131640632  -2.831765936017 Bohr   0.0
[INPUT]  6 C      0.084030000000   2.440954000000  -1.400763000000 AA    0.158793686247   4.612734542662  -2.647058435424 Bohr   0.0
[INPUT]  7 C     -0.049039000000   6.105549000000  -0.497335000000 AA   -0.092670279423  11.537815450112  -0.939826942161 Bohr   0.0
[INPUT]  8 C      0.023025000000   6.026350000000   0.874660000000 AA    0.043510944018  11.388151030773   1.652867852112 Bohr   0.0
[INPUT]  9 C      0.064561000000   1.321466000000   0.763573000000 AA    0.122002608328   2.497208822924   1.442943846113 Bohr   0.0
[INPUT] 10 C     -0.051576000000   1.017212000000  -0.625383000000 AA   -0.097464514601   1.922252090621  -1.181802592959 Bohr   0.0
[INPUT] 11 C     -0.062216000000   0.039631000000   1.269447000000 AA   -0.117571200566   0.074891736043   2.398907159651 Bohr   0.0
[INPUT] 12 C      0.023513000000  -0.111198000000  -1.308279000000 AA    0.044433130367  -0.210133765599  -2.472289004520 Bohr   0.0
[INPUT] 13 C     -0.055554000000  -1.434972000000   0.766550000000 AA   -0.104981845124  -2.711704076419   1.448569560785 Bohr   0.0
[INPUT] 14 C      0.005391000000  -1.212584000000  -0.755916000000 AA    0.010187513538  -2.291451663030  -1.428474213177 Bohr   0.0
[INPUT] 15 C     -0.084588000000  -2.523511000000   1.420441000000 AA   -0.159848153425  -4.768744662327   2.684244466103 Bohr   0.0
[INPUT] 16 C      0.083653000000  -2.433087000000  -1.419781000000 AA    0.158081259498  -4.597868067240  -2.682997246861 Bohr   0.0
[INPUT] 17 C     -0.127768000000  -3.605057000000   0.683127000000 AA   -0.241446527483  -6.812570393446   1.290922938296 Bohr   0.0
[INPUT] 18 C     -0.090987000000  -3.599550000000  -0.611756000000 AA   -0.171940510896  -6.802163671678  -1.156051295059 Bohr   0.0
[INPUT] 19 C     -0.084201000000  -4.762886000000   1.237621000000 AA   -0.159116829415  -9.000550102525   2.338764736010 Bohr   0.0
[INPUT] 20 C     -0.180652000000  -5.026128000000  -1.327686000000 AA   -0.341382803855  -9.498005387008  -2.508962919419 Bohr   0.0
[INPUT] 21 C     -0.056146000000  -6.106854000000   0.604419000000 AA   -0.106100562990 -11.540281542705   1.142186374483 Bohr   0.0
[INPUT] 22 C      0.068024000000  -6.095226000000  -0.552927000000 AA    0.128546729897 -11.518307807328  -1.044880596877 Bohr   0.0
[INPUT] 23 H      0.054297000000   4.980921000000   2.384433000000 AA    0.102606459386   9.412576538095   4.505925332375 Bohr   0.0
[INPUT] 24 H      0.075615000000   2.397822000000   2.714737000000 AA    0.142891640909   4.531226875457   5.130109430223 Bohr   0.0
[INPUT] 25 H      0.040407000000   4.842862000000  -2.468291000000 AA    0.076358163515   9.151682839063  -4.664393985729 Bohr   0.0
[INPUT] 26 H     -0.114850000000   2.538445000000  -2.630058000000 AA   -0.217035045406   4.796965832272  -4.970089311721 Bohr   0.0
[INPUT] 27 H      0.225306000000   6.985248000000  -1.197305000000 AA    0.425766634221  13.200205632166  -2.262578537572 Bohr   0.0
[INPUT] 28 H     -0.011141000000   7.048732000000   1.251135000000 AA   -0.021053438754  13.320173005458   2.364302494858 Bohr   0.0
[INPUT] 29 H     -0.183565000000   0.032511000000   2.489570000000 AA   -0.346887576056   0.061436886036   4.704605467933 Bohr   0.0
[INPUT] 30 H      0.156961000000  -0.032031000000  -2.633097000000 AA    0.296613302238  -0.060529817496  -4.975832189414 Bohr   0.0
[INPUT] 31 H     -0.034171000000  -2.284010000000   2.430132000000 AA   -0.064573831403  -4.316153365768   4.592283926542 Bohr   0.0
[INPUT] 32 H      0.072934000000  -2.524540000000  -2.501892000000 AA    0.137825285169  -4.770689190509  -4.727890673240 Bohr   0.0
[INPUT] 33 H     -0.169542000000  -4.864755000000   2.491575000000 AA   -0.320387946611  -9.193054613109   4.708394368813 Bohr   0.0
[INPUT] 34 H      0.012211000000  -4.741798000000  -2.535886000000 AA    0.023075445707  -8.960699558010  -4.792130023119 Bohr   0.0
[INPUT] 35 H     -0.037299000000  -7.040069000000   1.290608000000 AA   -0.070484894720 -13.303802308041   2.438895654173 Bohr   0.0
[INPUT] 36 H     -0.022124000000  -7.005942000000  -1.354623000000 AA   -0.041808300780 -13.239311624588  -2.559866472037 Bohr   0.0
[INPUT] ---------------- BASIS SET ---------------- 
[INPUT] l, kappa, [nprim/nctr], expnt,             c_1 c_2 ...
[INPUT] H
[INPUT] 0    0    [3    /1   ]  3.42525091        0.15432897
                                0.62391373        0.53532814
                                0.1688554         0.44463454
[INPUT] C
[INPUT] 0    0    [3    /1   ]  71.616837         0.15432897
                                13.045096         0.53532814
                                3.5305122         0.44463454
[INPUT] 0    0    [3    /1   ]  2.9412494         -0.09996723
                                0.6834831         0.39951283
                                0.2222899         0.70011547
[INPUT] 1    0    [3    /1   ]  2.9412494         0.15591627
                                0.6834831         0.60768372
                                0.2222899         0.39195739

nuclear repulsion = 1510.30710405675
number of shells = 80
number of NR pGTOs = 372
number of NR cGTOs = 124
basis = sto3g
ecp = {}
CPU time:      7772.98
atom C rad-grids = 99, ang-grids = [ 50  50  50  50  50  50  50  50  50  50  50  50  50  50  50  50  50  50
  50  50  50  50  50  50  50  50  50  50  50  50  50  86  86  86  86  86
  86  86  86  86  86  86  86 434 434 434 434 434 434 434 434 434 590 590
 590 590 590 590 590 590 590 590 590 590 590 590 590 590 590 590 590 590
 590 590 590 590 590 590 590 434 434 434 434 434 434 434 434 434 434 434
 434 434 434 434 434 434 434 434 434]
atom H rad-grids = 99, ang-grids = [ 50  50  50  50  50  50  50  50  50  50  50  50  50  50  50  50  50  50
  50  50  50  50  50  50  50  50  50  50  86  86  86  86  86  86  86 434
 434 434 434 434 434 434 434 590 590 590 590 590 590 590 590 590 590 590
 590 590 590 590 590 590 590 590 590 590 590 590 590 590 590 434 434 434
 434 434 434 434 434 434 434 434 434 434 434 434 434 434 434 434 434 434
 434 434 434 434 434 434 434 434 434]
tot_boxes 5270, boxes in each direction [ 8 29 15]
Padding 0 grids
tot grids = 1157832


******** <class 'pyscf.dft.rks.RKS'> ********
method = RKS
initial guess = minao
damping factor = 0
level_shift factor = 0
DIIS = <class 'pyscf.scf.diis.CDIIS'>
diis_start_cycle = 1
diis_space = 8
SCF conv_tol = 1e-10
SCF conv_tol_grad = None
SCF max_cycles = 50
direct_scf = True
direct_scf_tol = 1e-13
chkfile to save SCF result = /home/saade/mlelec/tutorials/tmpk5q0gws4
max_memory 4000 MB (current use 636 MB)
XC library pyscf.dft.libxc version 6.1.0
    S. Lehtola, C. Steigemann, M. J.T. Oliveira, and M. A.L. Marques.,  SoftwareX 7, 1–5 (2018)
XC functionals = b3lypg
    P. J. Stephens, F. J. Devlin, C. F. Chabalowski, and M. J. Frisch.,  J. Phys. Chem. 98, 11623 (1994)
radial grids: 
    Treutler-Ahlrichs [JCP 102, 346 (1995); DOI:10.1063/1.469408] (M4) radial grids
    
becke partition: Becke, JCP 88, 2547 (1988); DOI:10.1063/1.454033
pruning grids: <function nwchem_prune at 0x7f9db5616ca0>
grids dens level: 3
symmetrized grids: False
atomic radii adjust function: <function treutler_atomic_radii_adjust at 0x7f9db5617380>
User specified grid scheme (99, 590)
small_rho_cutoff = 1e-07
Set gradient conv threshold to 1e-05
Initial guess from minao.
nelec by numeric integration = 145.27905047973448
    CPU time for vxc     37.22 sec, wall time     15.65 sec
E1 = -4121.019859925718  Ecoul = 1895.0393438706462  Exc = -126.13979913624595
init E= -841.813211134566
cond(S) = 24.172851292627556
    CPU time for initialize scf     47.53 sec, wall time     18.11 sec
  HOMO = -0.198185579232203  LUMO = -0.150827518582645
  mo_energy =
[-1.01499625e+01 -1.01356635e+01 -1.01325272e+01 -1.01313339e+01
 -1.01285628e+01 -1.01264620e+01 -1.01237833e+01 -1.01179637e+01
 -1.01133823e+01 -1.01046084e+01 -1.01041669e+01 -1.01031893e+01
 -1.01012951e+01 -1.01009498e+01 -1.00973344e+01 -1.00909691e+01
 -1.00873427e+01 -1.00851967e+01 -1.00827808e+01 -1.00801313e+01
 -1.00724525e+01 -1.00682372e+01 -1.12644556e+00 -1.08949371e+00
 -1.04935403e+00 -1.02150483e+00 -9.95424297e-01 -9.28551466e-01
 -9.12677900e-01 -8.99614522e-01 -8.72709576e-01 -8.30077320e-01
 -7.86166873e-01 -7.74565605e-01 -7.22065059e-01 -7.11506482e-01
 -6.93810703e-01 -6.75662136e-01 -6.52372853e-01 -6.24797520e-01
 -5.95177137e-01 -5.86037346e-01 -5.71410646e-01 -5.54466433e-01
 -5.31071084e-01 -5.24666030e-01 -5.16692138e-01 -4.98628859e-01
 -4.94265291e-01 -4.89931465e-01 -4.76172242e-01 -4.66554973e-01
 -4.52679865e-01 -4.48718287e-01 -4.33788810e-01 -4.27973322e-01
 -4.12768416e-01 -4.09683091e-01 -4.03901248e-01 -3.88568627e-01
 -3.86554697e-01 -3.77905801e-01 -3.65557293e-01 -3.39895429e-01
 -3.31185796e-01 -3.23036605e-01 -3.16467296e-01 -3.12661220e-01
 -3.01781573e-01 -2.99206580e-01 -2.75110877e-01 -2.38656708e-01
 -1.98185579e-01 -1.50827519e-01 -1.00608790e-01 -6.40476739e-02
 -4.60463433e-02 -1.76048192e-02  6.74640155e-03  4.22565010e-02
  6.37746048e-02  6.54081023e-02  8.24750530e-02  1.08605362e-01
  1.23212453e-01  1.42724784e-01  1.61708579e-01  1.75115493e-01
  1.85536916e-01  1.94148008e-01  2.00564000e-01  2.04808559e-01
  2.11749716e-01  2.19876146e-01  2.31525281e-01  2.41912728e-01
  2.46638810e-01  2.70074137e-01  2.84668131e-01  3.04700300e-01
  3.08928638e-01  3.17928873e-01  3.22274918e-01  3.62567541e-01
  3.85262050e-01  3.92881293e-01  4.25771254e-01  4.38011384e-01
  4.46000017e-01  5.01862543e-01  5.17165503e-01  5.60964687e-01
  5.71842533e-01  5.96535078e-01  6.19846014e-01  6.41163651e-01
  6.43259533e-01  6.75901818e-01  7.05943859e-01  7.39539541e-01
  7.61829405e-01  7.76596305e-01  8.13177970e-01  8.82366015e-01]
nelec by numeric integration = 145.99999803321597
    CPU time for vxc     37.63 sec, wall time     15.60 sec
E1 = -4136.059191446902  Ecoul = 1914.8902307298379  Exc = -124.76688974059356
cycle= 1 E= -835.628746400906  delta_E= 6.18  |g|= 0.29  |ddm|= 9.35
    CPU time for cycle= 1     37.89 sec, wall time     15.65 sec
  HOMO = -0.078918822579131  LUMO = -0.00141578251464238
  mo_energy =
[-1.00269072e+01 -1.00213566e+01 -1.00108126e+01 -1.00021907e+01
 -9.99970895e+00 -9.99962835e+00 -9.99930155e+00 -9.99880335e+00
 -9.99248367e+00 -9.98801651e+00 -9.98154242e+00 -9.97471413e+00
 -9.97441708e+00 -9.96958800e+00 -9.96837726e+00 -9.96354217e+00
 -9.96346461e+00 -9.96298573e+00 -9.96174645e+00 -9.95605328e+00
 -9.95507490e+00 -9.93832016e+00 -8.41478041e-01 -8.30926098e-01
 -8.08027101e-01 -7.85508157e-01 -7.58843589e-01 -7.32418305e-01
 -7.13159796e-01 -6.94891493e-01 -6.82710405e-01 -6.50553394e-01
 -6.18576774e-01 -6.12815388e-01 -5.74669201e-01 -5.66157848e-01
 -5.44372117e-01 -5.33909349e-01 -5.06163644e-01 -4.96154263e-01
 -4.86121817e-01 -4.60438413e-01 -4.50971562e-01 -4.29577617e-01
 -4.24169142e-01 -4.14628422e-01 -4.01620227e-01 -3.92268183e-01
 -3.81413209e-01 -3.74620924e-01 -3.56137613e-01 -3.46156750e-01
 -3.40978155e-01 -3.37732857e-01 -3.32318564e-01 -3.20675442e-01
 -3.13879975e-01 -3.04507505e-01 -2.94260424e-01 -2.79666589e-01
 -2.74218251e-01 -2.71704601e-01 -2.55551556e-01 -2.49502648e-01
 -2.42224895e-01 -2.22884667e-01 -2.18387636e-01 -2.11985859e-01
 -2.00635971e-01 -1.77334583e-01 -1.66323210e-01 -1.27625244e-01
 -7.89188226e-02 -1.41578251e-03  4.69001755e-02  8.37988178e-02
  1.12401043e-01  1.37949532e-01  1.56566635e-01  2.03272748e-01
  2.14006792e-01  2.23456702e-01  2.25345151e-01  2.45060953e-01
  2.75975018e-01  2.92611538e-01  3.05814232e-01  3.16991375e-01
  3.31675934e-01  3.32243578e-01  3.42500199e-01  3.44299650e-01
  3.66173221e-01  3.70523050e-01  3.83194907e-01  3.93087092e-01
  4.02850892e-01  4.16366291e-01  4.24920456e-01  4.41386702e-01
  4.45838418e-01  4.67317851e-01  4.88869494e-01  5.17085972e-01
  5.31292622e-01  5.51373073e-01  5.53838345e-01  6.06812968e-01
  6.16973028e-01  6.53006700e-01  6.67596295e-01  7.04196789e-01
  7.22083966e-01  7.44500573e-01  8.02272144e-01  8.14102909e-01
  8.24474800e-01  8.49426387e-01  8.95160710e-01  9.20354832e-01
  9.29180392e-01  9.55454801e-01  1.00583122e+00  1.06513172e+00]
nelec by numeric integration = 145.9999979567832
    CPU time for vxc     38.11 sec, wall time     15.72 sec
E1 = -4129.863242534839  Ecoul = 1908.5041252054843  Exc = -124.58172965208986
cycle= 2 E= -835.633742924692  delta_E= -0.005  |g|= 0.287  |ddm|= 0.913
    CPU time for cycle= 2     38.49 sec, wall time     15.79 sec
  HOMO = -0.098071378635342  LUMO = -0.0173880111730415
  mo_energy =
[-10.04013741 -10.03975953 -10.03338468 -10.02623521 -10.02527999
 -10.02432311 -10.02268683 -10.02199886 -10.02104807 -10.02061732
 -10.01698681 -10.01444773 -10.01206773 -10.01203122 -10.01194316
 -10.00444123  -9.99658846  -9.9964483   -9.99639528  -9.98678188
  -9.97169768  -9.96902563  -0.87933429  -0.85673296  -0.82860596
  -0.81141814  -0.79433251  -0.74185935  -0.72805476  -0.72607799
  -0.70142088  -0.66732325  -0.63630293  -0.62595499  -0.587702
  -0.58388887  -0.56650772  -0.5537672   -0.5297917   -0.50739873
  -0.49331995  -0.4834973   -0.46530581  -0.45430793  -0.43354909
  -0.43215766  -0.42284257  -0.40383128  -0.39587253  -0.38817245
  -0.38696801  -0.36619108  -0.36291696  -0.35833758  -0.34573058
  -0.33265568  -0.32606408  -0.3229938   -0.30992321  -0.30090997
  -0.29856983  -0.28814523  -0.28274488  -0.25950521  -0.24236735
  -0.23529713  -0.23088519  -0.22630298  -0.21486379  -0.20220189
  -0.18234723  -0.14219734  -0.09807138  -0.01738801   0.03407014
   0.0686063    0.0896172    0.12094706   0.14502731   0.18465743
   0.18684231   0.20342745   0.21158905   0.23633697   0.25588137
   0.27873822   0.29910775   0.30317004   0.31439193   0.32774882
   0.33866258   0.34083121   0.34676671   0.36071792   0.3674846
   0.38125531   0.38322432   0.4011401    0.41307675   0.42859248
   0.43646738   0.45252426   0.45739017   0.502293     0.52811414
   0.53527245   0.54534055   0.57834401   0.5914831    0.64457504
   0.65640981   0.69505368   0.71652419   0.72739672   0.7641955
   0.78370136   0.78650841   0.81536321   0.84965623   0.88021297
   0.90288333   0.91743931   0.95939483   1.02973508]
nelec by numeric integration = 145.99999796879797
    CPU time for vxc     38.17 sec, wall time     15.71 sec
E1 = -4132.655090684795  Ecoul = 1911.3372721141425  Exc = -124.64581124233733
cycle= 3 E= -835.656525756238  delta_E= -0.0228  |g|= 0.141  |ddm|= 0.599
    CPU time for cycle= 3     38.78 sec, wall time     15.80 sec
  HOMO = -0.102954773103634  LUMO = -0.0224635909700184
  mo_energy =
[-10.03476584 -10.03248867 -10.02906088 -10.02879547 -10.0280129
 -10.02648765 -10.02565634 -10.02444266 -10.02425634 -10.02002444
 -10.01806284 -10.0172062  -10.01359597 -10.01099684 -10.01031538
 -10.01003825 -10.00848632 -10.00834233 -10.0076523  -10.00309217
 -10.00110385  -9.99550207  -0.87883389  -0.85738077  -0.83137311
  -0.81446305  -0.79479087  -0.74418352  -0.73518179  -0.72585301
  -0.70327677  -0.67268228  -0.6392606   -0.63203339  -0.59247065
  -0.58521936  -0.56810669  -0.55583569  -0.53116673  -0.50931016
  -0.49636983  -0.48388205  -0.46859022  -0.45557093  -0.4377705
  -0.43439678  -0.42269051  -0.40520694  -0.4009326   -0.39182854
  -0.38821429  -0.36721471  -0.36549996  -0.35999818  -0.34707896
  -0.33489452  -0.32955652  -0.32319711  -0.31509494  -0.30547429
  -0.29671457  -0.28935842  -0.28475358  -0.26252177  -0.24957232
  -0.24144937  -0.23381731  -0.23033938  -0.22075747  -0.20361989
  -0.185607    -0.1491812   -0.10295477  -0.02246359   0.02697364
   0.06653484   0.08662038   0.11735523   0.13762774   0.18298612
   0.1898898    0.19959207   0.21035266   0.23153825   0.25193649
   0.27816539   0.29679738   0.30415321   0.31123632   0.32371943
   0.33120207   0.33380834   0.34580185   0.35711207   0.35967951
   0.37675221   0.38357289   0.40161459   0.41282376   0.43038682
   0.43513824   0.44884698   0.45782635   0.49825417   0.51653641
   0.52676319   0.54648042   0.57559955   0.58653057   0.63855835
   0.65301886   0.69194833   0.7087906    0.72129987   0.76676337
   0.78179158   0.78641101   0.8166186    0.8503616    0.88261565
   0.9028876    0.9176637    0.95931032   1.0221764 ]
nelec by numeric integration = 145.99999799367313
    CPU time for vxc     38.79 sec, wall time     15.96 sec
E1 = -4132.616324314359  Ecoul = 1911.3005901685383  Exc = -124.65331692247916
cycle= 4 E= -835.661947011548  delta_E= -0.00542  |g|= 0.0721  |ddm|= 0.332
    CPU time for cycle= 4     39.09 sec, wall time     16.02 sec
  HOMO = -0.103297057702811  LUMO = -0.0231778417821198
  mo_energy =
[-10.03552895 -10.0340066  -10.03307422 -10.03249679 -10.0262917
 -10.02615541 -10.02361977 -10.02208709 -10.02069544 -10.01994956
 -10.01822693 -10.01605317 -10.01452712 -10.01183838 -10.01132477
 -10.01082551 -10.01037135 -10.00877845 -10.00853597 -10.00299898
 -10.00130816  -9.99720844  -0.87821455  -0.85832897  -0.83113405
  -0.81462928  -0.7938466   -0.74542434  -0.73578852  -0.72624139
  -0.70430428  -0.6714693   -0.63992762  -0.63155414  -0.59112358
  -0.58728889  -0.5673211   -0.55687147  -0.53169878  -0.51073026
  -0.4976352   -0.48352613  -0.46759357  -0.45600008  -0.43626462
  -0.43497552  -0.42252512  -0.40582538  -0.39991995  -0.39261395
  -0.38807197  -0.36796102  -0.36561089  -0.35878274  -0.34742814
  -0.33583954  -0.33016912  -0.32367977  -0.313408    -0.30424727
  -0.29615029  -0.28925154  -0.2860904   -0.26447031  -0.25080346
  -0.23992969  -0.23504699  -0.23203091  -0.2211527   -0.20455575
  -0.18690125  -0.1479516   -0.10329706  -0.02317784   0.02779208
   0.06420355   0.08695449   0.1170919    0.13629392   0.18357344
   0.18921954   0.20025025   0.21071849   0.23459354   0.25274731
   0.2757387    0.2967699    0.30392048   0.31043508   0.32252676
   0.33206655   0.3350575    0.3456359    0.35631569   0.35889633
   0.37702516   0.37937696   0.40123597   0.41329088   0.42805781
   0.43338167   0.45196567   0.45765575   0.49933798   0.51789347
   0.52843034   0.54416943   0.57774141   0.58903305   0.63610127
   0.64921348   0.68799132   0.71186144   0.71852354   0.76590926
   0.78251017   0.7856863    0.81573398   0.85134402   0.88153407
   0.90170632   0.91720322   0.96115375   1.02683006]
nelec by numeric integration = 145.99999796961336
    CPU time for vxc     37.74 sec, wall time     15.68 sec
E1 = -4132.750122492939  Ecoul = 1911.4316881908808  Exc = -124.6522860582377
cycle= 5 E= -835.663616303544  delta_E= -0.00167  |g|= 0.0303  |ddm|= 0.175
    CPU time for cycle= 5     38.42 sec, wall time     15.78 sec
  HOMO = -0.101949308027811  LUMO = -0.0216316244011739
  mo_energy =
[-10.03318485 -10.0331378  -10.03288339 -10.03073809 -10.02507523
 -10.02367606 -10.02218041 -10.02086511 -10.01924228 -10.01822863
 -10.01709733 -10.01618354 -10.01301743 -10.0115857  -10.01149884
 -10.01000264 -10.00883577 -10.00711655 -10.00677912 -10.00087495
  -9.99925453  -9.99591591  -0.87735955  -0.8567814   -0.83033101
  -0.81342053  -0.79328366  -0.74411317  -0.73482666  -0.72525093
  -0.70334534  -0.67087343  -0.63822691  -0.6307927   -0.59050896
  -0.58611699  -0.56725602  -0.55554315  -0.53055894  -0.50942429
  -0.49685989  -0.48290246  -0.46725218  -0.45495246  -0.43553869
  -0.43452699  -0.42227247  -0.40502651  -0.39940985  -0.39184556
  -0.38727039  -0.3668429   -0.36491197  -0.35870253  -0.34661337
  -0.33508604  -0.32960507  -0.322881    -0.31287496  -0.30350604
  -0.29649289  -0.28857449  -0.28506838  -0.26351865  -0.2497739
  -0.23928524  -0.23380253  -0.23068433  -0.22040226  -0.20360127
  -0.18597074  -0.14735668  -0.10194931  -0.02163162   0.0285173
   0.06541521   0.08762933   0.11783138   0.13779573   0.18448932
   0.18977338   0.20105723   0.21095121   0.23467047   0.25325636
   0.2778282    0.29751029   0.30425795   0.3111999    0.32372378
   0.33364388   0.33520333   0.3465371    0.35758026   0.35981157
   0.37825191   0.3815747    0.40190705   0.41363505   0.42840578
   0.43402867   0.4507384    0.45858186   0.49995848   0.51918761
   0.5292212    0.5447564    0.57728418   0.58867467   0.63813786
   0.65170864   0.68988087   0.71275746   0.71958811   0.76690962
   0.78349873   0.78677442   0.81681546   0.85207231   0.88304275
   0.90232339   0.91796214   0.96165057   1.02768499]
nelec by numeric integration = 145.99999797762905
    CPU time for vxc     38.03 sec, wall time     15.72 sec
E1 = -4132.627220712018  Ecoul = 1911.3058969047768  Exc = -124.64972433797445
cycle= 6 E= -835.663944088463  delta_E= -0.000328  |g|= 0.0105  |ddm|= 0.0674
    CPU time for cycle= 6     38.52 sec, wall time     15.80 sec
  HOMO = -0.101908630055026  LUMO = -0.0215125994141226
  mo_energy =
[-10.03336246 -10.0328839  -10.03173209 -10.03088943 -10.02600519
 -10.02345936 -10.02090141 -10.0205218  -10.01955486 -10.01834607
 -10.01737194 -10.01659321 -10.01176277 -10.01093431 -10.01071867
 -10.00780041 -10.00770128 -10.00617708 -10.00470239 -10.00262475
  -9.9993097   -9.9961797   -0.87712597  -0.85681029  -0.82989536
  -0.81312095  -0.79317395  -0.74375071  -0.73431251  -0.72506306
  -0.70303951  -0.67063951  -0.63812385  -0.63058662  -0.59025028
  -0.58572662  -0.56685466  -0.55537822  -0.53058085  -0.5093424
  -0.49640509  -0.48285032  -0.46700896  -0.45480634  -0.43519532
  -0.43444081  -0.42201821  -0.4048254   -0.3991106   -0.39145795
  -0.38713299  -0.36675854  -0.36468608  -0.35857346  -0.34685339
  -0.33467426  -0.32926701  -0.32309044  -0.31279759  -0.30339555
  -0.29612553  -0.28841514  -0.2849443   -0.26308908  -0.24926458
  -0.23910687  -0.23365678  -0.23059396  -0.22008269  -0.20337991
  -0.18558848  -0.1471392   -0.10190863  -0.0215126    0.02884275
   0.06585599   0.08791644   0.1182463    0.13822183   0.18448345
   0.18956985   0.20121228   0.21094826   0.23466478   0.25353037
   0.27763747   0.29763305   0.30440999   0.31157541   0.32386487
   0.33391647   0.33516473   0.34667156   0.35765495   0.36031651
   0.37848215   0.38128473   0.40204948   0.41378684   0.42893956
   0.4345117    0.45137736   0.45870426   0.50019622   0.51947986
   0.52928724   0.54538926   0.57786687   0.58921858   0.63855864
   0.65181407   0.69046974   0.71293111   0.72045284   0.76712515
   0.78360926   0.78695646   0.816829     0.85221357   0.88285461
   0.90301415   0.91825261   0.96165958   1.02759068]
nelec by numeric integration = 145.99999797619702
    CPU time for vxc     38.68 sec, wall time     15.82 sec
E1 = -4132.614575081208  Ecoul = 1911.2924966630712  Exc = -124.64900912011974
cycle= 7 E= -835.663983481505  delta_E= -3.94e-05  |g|= 0.00171  |ddm|= 0.0177
    CPU time for cycle= 7     39.20 sec, wall time     15.89 sec
  HOMO = -0.10187568069397  LUMO = -0.0214489282953747
  mo_energy =
[-10.03313484 -10.03304302 -10.03167068 -10.03036422 -10.02570634
 -10.02326945 -10.02071997 -10.02059561 -10.01979575 -10.0183692
 -10.01754647 -10.01650607 -10.01213819 -10.0109068  -10.01081741
 -10.00795637 -10.00778011 -10.00584208 -10.00464662 -10.00249298
  -9.99923433  -9.99628214  -0.87715527  -0.85668764  -0.82990432
  -0.81316333  -0.79311799  -0.7437236   -0.73428907  -0.72503979
  -0.70297914  -0.67059448  -0.63808776  -0.63057422  -0.59025773
  -0.5857175   -0.5668438   -0.55536164  -0.5304741   -0.50928519
  -0.49639306  -0.48280733  -0.46700426  -0.45479955  -0.43521731
  -0.43447847  -0.42198868  -0.40479456  -0.39910774  -0.39143339
  -0.38711029  -0.36669382  -0.36461708  -0.35855059  -0.34672793
  -0.33466249  -0.32924477  -0.3229789   -0.31284787  -0.30343171
  -0.29616177  -0.28837601  -0.28487827  -0.2630739   -0.24927147
  -0.23914185  -0.23360642  -0.23052507  -0.22002955  -0.20331986
  -0.18554766  -0.14712007  -0.10187568  -0.02144893   0.02889078
   0.06590554   0.08793892   0.11827877   0.13820441   0.18456146
   0.18971139   0.20120354   0.21106896   0.23458877   0.25352714
   0.27775394   0.29767228   0.30441995   0.31159074   0.3238959
   0.33399678   0.33510943   0.34671419   0.35774342   0.36035412
   0.37849197   0.38138039   0.40205549   0.41376247   0.42892283
   0.43451949   0.45140127   0.45867692   0.50024803   0.51949182
   0.52932006   0.54535469   0.57789371   0.58929712   0.63858351
   0.65190623   0.69049564   0.71286167   0.72043376   0.76716252
   0.78364243   0.7869622    0.81696395   0.8522042    0.88300823
   0.90298839   0.91829754   0.96174539   1.02742586]
nelec by numeric integration = 145.99999797636235
    CPU time for vxc     38.09 sec, wall time     15.74 sec
E1 = -4132.60973559741  Ecoul = 1911.2876784998766  Exc = -124.64903131704051
cycle= 8 E= -835.663984357821  delta_E= -8.76e-07  |g|= 0.000692  |ddm|= 0.0032
    CPU time for cycle= 8     38.64 sec, wall time     15.82 sec
  HOMO = -0.101903541774105  LUMO = -0.0214640954048378
  mo_energy =
[-10.03316365 -10.03312998 -10.03172668 -10.03056894 -10.02576567
 -10.02334352 -10.02079004 -10.02058208 -10.01972093 -10.01834518
 -10.01747124 -10.01655974 -10.01210178 -10.01087937 -10.01080588
 -10.00790237 -10.00784871 -10.00592962 -10.00477224 -10.00253203
  -9.99930788  -9.99617167  -0.877175    -0.85674288  -0.82991778
  -0.81316166  -0.79314868  -0.74374895  -0.734313    -0.72507129
  -0.70300612  -0.67061771  -0.63810325  -0.63059029  -0.59027121
  -0.58573385  -0.56686718  -0.55537923  -0.53051191  -0.5093016
  -0.49642015  -0.48282993  -0.46701339  -0.45481449  -0.43521451
  -0.43448087  -0.42200703  -0.40481022  -0.39911883  -0.39145584
  -0.38713744  -0.36672578  -0.36465323  -0.35856311  -0.34674542
  -0.33467508  -0.329252    -0.32298711  -0.31283154  -0.30342203
  -0.29617181  -0.28839729  -0.28490597  -0.26308807  -0.24928517
  -0.23913983  -0.2336272   -0.23054645  -0.22005597  -0.20336216
  -0.18556952  -0.14713857  -0.10190354  -0.0214641    0.02887201
   0.0658826    0.08791195   0.11825411   0.13819121   0.1845306
   0.18969229   0.20120476   0.21104663   0.23460741   0.25352048
   0.2777199    0.29765442   0.30440851   0.31157465   0.32388426
   0.33396429   0.33513613   0.34668845   0.35771774   0.36033476
   0.37848086   0.38137896   0.40204307   0.41375931   0.42892344
   0.43451181   0.45137007   0.45867717   0.50021329   0.51947137
   0.52929397   0.54534152   0.57785417   0.58924289   0.63855256
   0.65186276   0.69047343   0.71287374   0.72042608   0.76712215
   0.78362622   0.78693563   0.81691776   0.85218257   0.88295107
   0.90298886   0.91827049   0.96169829   1.02746756]
nelec by numeric integration = 145.9999979762944
    CPU time for vxc     38.50 sec, wall time     15.80 sec
E1 = -4132.614279460857  Ecoul = 1911.2922652312413  Exc = -124.64907433247512
cycle= 9 E= -835.663984505338  delta_E= -1.48e-07  |g|= 0.000294  |ddm|= 0.0013
    CPU time for cycle= 9     38.95 sec, wall time     15.87 sec
  HOMO = -0.101901725358325  LUMO = -0.0214565114222654
  mo_energy =
[-10.03315561 -10.03310252 -10.03172744 -10.03053934 -10.02579911
 -10.02334679 -10.02077102 -10.02060681 -10.01972202 -10.01835963
 -10.0174834  -10.01652417 -10.01206093 -10.01092777 -10.01080084
 -10.00794829 -10.0078162  -10.00593162 -10.00475804 -10.00252511
  -9.99923254  -9.99622831  -0.87716833  -0.85673764  -0.82992228
  -0.8131714   -0.79314654  -0.74374452  -0.73430731  -0.72506384
  -0.703006    -0.67061084  -0.63810359  -0.63058825  -0.59026518
  -0.58573866  -0.56686217  -0.55537619  -0.5305049   -0.50929815
  -0.49642337  -0.48282673  -0.46701165  -0.45481573  -0.43521457
  -0.43448348  -0.42200558  -0.40480786  -0.3991213   -0.39145547
  -0.38713038  -0.36672284  -0.36464753  -0.35855791  -0.34673644
  -0.33468     -0.3292506   -0.32298268  -0.31283822  -0.30342978
  -0.29616416  -0.28839519  -0.28490276  -0.26309023  -0.24927606
  -0.23913893  -0.23362301  -0.2305385   -0.22004803  -0.20335349
  -0.1855731   -0.14713658  -0.10190173  -0.02145651   0.02887666
   0.0658782    0.08791998   0.11825662   0.13820084   0.18453688
   0.18969298   0.2012004    0.21105444   0.23460271   0.25351787
   0.27773118   0.2976603    0.30441502   0.31157633   0.32388816
   0.33396954   0.33512836   0.3466961    0.35772473   0.36034368
   0.37848049   0.38138172   0.4020419    0.41375486   0.42890944
   0.43450568   0.45137671   0.45867706   0.50022036   0.51949831
   0.52930097   0.54532439   0.57786118   0.58925618   0.63856547
   0.65186567   0.69046484   0.71287027   0.72041513   0.76713353
   0.78362395   0.78694504   0.81691684   0.85219193   0.88294935
   0.90297468   0.91826988   0.96170871   1.02746389]
nelec by numeric integration = 145.9999979762783
    CPU time for vxc     38.12 sec, wall time     15.72 sec
E1 = -4132.6134235053105  Ecoul = 1911.291414016212  Exc = -124.64907909994808
cycle= 10 E= -835.663984532294  delta_E= -2.7e-08  |g|= 0.000135  |ddm|= 0.000623
    CPU time for cycle= 10     38.79 sec, wall time     15.82 sec
  HOMO = -0.101902890666038  LUMO = -0.0214574370496973
  mo_energy =
[-10.03314574 -10.03310644 -10.03172266 -10.03053386 -10.02578861
 -10.02334674 -10.0207737  -10.02060935 -10.01971791 -10.01838008
 -10.01748281 -10.01652935 -10.01206381 -10.01092969 -10.01080517
 -10.00794478 -10.00783531 -10.00594619 -10.00474159 -10.00252441
  -9.99926339  -9.99620079  -0.87717112  -0.85673635  -0.82992196
  -0.81317031  -0.79314663  -0.74374578  -0.73431089  -0.72506591
  -0.70300608  -0.67061232  -0.63810319  -0.63058686  -0.59026577
  -0.58574021  -0.56686297  -0.55537873  -0.53050586  -0.50930057
  -0.49642369  -0.48282805  -0.46701173  -0.45481532  -0.43521489
  -0.43448225  -0.42200787  -0.40480974  -0.39911959  -0.39145634
  -0.38713256  -0.36672291  -0.36464783  -0.35855929  -0.34674089
  -0.33468034  -0.32925309  -0.32298539  -0.31283508  -0.30342691
  -0.29616715  -0.28839591  -0.28490367  -0.26309123  -0.2492806
  -0.23913755  -0.23362392  -0.23054165  -0.22005066  -0.20335476
  -0.18557328  -0.14713818  -0.10190289  -0.02145744   0.02887426
   0.06587878   0.08791916   0.11825518   0.13819645   0.18453601
   0.18969133   0.20120133   0.21105084   0.23460772   0.25351897
   0.27772635   0.29765832   0.3044117    0.31157393   0.32388506
   0.33396617   0.33513569   0.3466939    0.35772332   0.36033804
   0.37848149   0.38137876   0.40204166   0.4137554    0.42891073
   0.4345041    0.4513804    0.45867218   0.5002214    0.51949069
   0.5293022    0.54532634   0.57786219   0.58925721   0.63856258
   0.65186529   0.69046355   0.7128735    0.72041341   0.76712874
   0.78362532   0.78694062   0.8169184    0.85218746   0.88295288
   0.90297385   0.9182691    0.96170659   1.02746576]
nelec by numeric integration = 145.99999797626904
    CPU time for vxc     37.68 sec, wall time     15.60 sec
E1 = -4132.613537436459  Ecoul = 1911.2915275935572  Exc = -124.64907875251363
cycle= 11 E= -835.663984538663  delta_E= -6.37e-09  |g|= 5.14e-05  |ddm|= 0.000265
    CPU time for cycle= 11     38.05 sec, wall time     15.67 sec
  HOMO = -0.101904691423047  LUMO = -0.0214578654736441
  mo_energy =
[-10.03315306 -10.03310436 -10.03172363 -10.03054121 -10.02579441
 -10.02334631 -10.02078011 -10.02060638 -10.01971694 -10.01836908
 -10.01747962 -10.01653569 -10.01206937 -10.01092528 -10.01080447
 -10.00794198 -10.0078299  -10.005939   -10.00474831 -10.00253426
  -9.99925502  -9.99619989  -0.87717014  -0.8567392   -0.82992203
  -0.81316904  -0.79314838  -0.74374669  -0.73431032  -0.72506579
  -0.70300726  -0.67061235  -0.63810419  -0.63058726  -0.59026559
  -0.58573962  -0.56686327  -0.55537826  -0.53050832  -0.50930124
  -0.49642259  -0.48282817  -0.46701147  -0.45481552  -0.43521462
  -0.43448141  -0.42200805  -0.40481009  -0.39911943  -0.39145615
  -0.38713295  -0.36672424  -0.3646493   -0.35855988  -0.34674304
  -0.33468041  -0.32925323  -0.32298885  -0.31283388  -0.30342616
  -0.29616607  -0.28839686  -0.28490487  -0.26309107  -0.24927999
  -0.23913704  -0.23362533  -0.23054343  -0.22005144  -0.20335567
  -0.1855737   -0.14713746  -0.10190469  -0.02145787   0.02887542
   0.06587812   0.08791879   0.11825521   0.13819691   0.1845338
   0.18968756   0.20120164   0.21104813   0.23460882   0.25351877
   0.27772464   0.29765835   0.30441234   0.31157491   0.3238856
   0.33396593   0.33513621   0.34669289   0.35772097   0.36033918
   0.37848095   0.38137575   0.40204209   0.41375721   0.42891157
   0.43450422   0.45137799   0.4586742    0.50021991   0.51949208
   0.52930155   0.54532799   0.57786071   0.58925435   0.6385608
   0.65186316   0.69046397   0.71287453   0.72041615   0.76712923
   0.78362492   0.78694132   0.81691531   0.85218808   0.88294928
   0.90297553   0.91826858   0.96170428   1.02746809]
nelec by numeric integration = 145.9999979762625
    CPU time for vxc     37.86 sec, wall time     15.71 sec
E1 = -4132.613625698147  Ecoul = 1911.2916149636026  Exc = -124.64907786185931
cycle= 12 E= -835.663984539652  delta_E= -9.89e-10  |g|= 1.38e-05  |ddm|= 9.81e-05
    CPU time for cycle= 12     38.23 sec, wall time     15.77 sec
  HOMO = -0.101903626761548  LUMO = -0.0214565776441846
  mo_energy =
[-10.0331527  -10.0331074  -10.03172466 -10.03054057 -10.02579319
 -10.02334779 -10.02077494 -10.02060437 -10.01971624 -10.01837118
 -10.01747862 -10.01653007 -10.01206589 -10.01092292 -10.01080278
 -10.00794147 -10.00783142 -10.0059363  -10.00474438 -10.00253098
  -9.99925315  -9.99620075  -0.87717018  -0.85673829  -0.8299208
  -0.81316863  -0.79314703  -0.74374551  -0.73430894  -0.72506571
  -0.70300616  -0.67061145  -0.63810336  -0.63058642  -0.59026485
  -0.58573901  -0.56686263  -0.55537795  -0.53050712  -0.50930061
  -0.49642196  -0.48282778  -0.46701066  -0.45481496  -0.43521407
  -0.43448103  -0.4220075   -0.40480938  -0.39911892  -0.39145516
  -0.38713254  -0.3667237   -0.3646481   -0.35855927  -0.34674206
  -0.33467935  -0.32925212  -0.32298731  -0.31283397  -0.30342591
  -0.29616609  -0.28839588  -0.2849039   -0.26309018  -0.24927887
  -0.23913672  -0.23362452  -0.23054208  -0.22005028  -0.20335527
  -0.18557269  -0.14713677  -0.10190363  -0.02145658   0.02887632
   0.06587895   0.08791932   0.11825608   0.13819812   0.18453519
   0.18968877   0.20120215   0.21104967   0.23460851   0.25351966
   0.27772542   0.29765874   0.30441221   0.31157542   0.32388605
   0.33396709   0.33513603   0.34669359   0.35772222   0.36034027
   0.37848155   0.38137662   0.40204243   0.41375721   0.42891186
   0.43450505   0.45137939   0.45867393   0.50022108   0.51949354
   0.52930222   0.54532841   0.57786207   0.58925665   0.63856254
   0.65186448   0.69046512   0.71287457   0.7204171    0.76712927
   0.78362538   0.78694122   0.81691658   0.85218837   0.88294985
   0.90297648   0.91826945   0.96170605   1.02746815]
nelec by numeric integration = 145.99999797626012
    CPU time for vxc     37.97 sec, wall time     15.67 sec
E1 = -4132.61355417153  Ecoul = 1911.2915416465416  Exc = -124.64907607146675
cycle= 13 E= -835.663984539703  delta_E= -5.09e-11  |g|= 8.95e-06  |ddm|= 3.42e-05
    CPU time for cycle= 13     38.48 sec, wall time     15.75 sec
  HOMO = -0.101904370080034  LUMO = -0.0214572356453587
  mo_energy =
[-10.03315083 -10.03310479 -10.03172231 -10.03053865 -10.02579279
 -10.02334647 -10.02077946 -10.02060595 -10.01971809 -10.0183697
 -10.01748109 -10.0165347  -10.01206712 -10.01092577 -10.01080423
 -10.00794187 -10.00782982 -10.00593961 -10.00474901 -10.00253232
  -9.99925424  -9.9962018   -0.87717022  -0.85673814  -0.82992192
  -0.81316927  -0.79314795  -0.74374618  -0.73430987  -0.72506555
  -0.70300676  -0.67061203  -0.63810373  -0.63058721  -0.59026546
  -0.58573947  -0.56686317  -0.55537798  -0.53050755  -0.5093006
  -0.49642258  -0.48282798  -0.46701154  -0.45481555  -0.43521447
  -0.43448173  -0.42200788  -0.40480975  -0.3991194   -0.39145601
  -0.38713272  -0.36672354  -0.36464875  -0.35855969  -0.3467418
  -0.33468016  -0.32925277  -0.32298765  -0.3128344   -0.30342649
  -0.29616633  -0.28839653  -0.28490438  -0.26309089  -0.24927934
  -0.23913726  -0.23362473  -0.23054258  -0.2200508   -0.20335519
  -0.18557339  -0.1471374   -0.10190437  -0.02145724   0.02887559
   0.06587867   0.08791899   0.11825544   0.13819746   0.18453436
   0.18968907   0.20120155   0.21104936   0.23460794   0.25351876
   0.27772555   0.29765871   0.30441247   0.31157516   0.32388596
   0.33396653   0.33513549   0.34669329   0.35772191   0.36033975
   0.37848121   0.38137684   0.40204191   0.41375659   0.42891142
   0.43450462   0.45137796   0.45867406   0.50022027   0.51949281
   0.52930172   0.54532777   0.57786075   0.58925484   0.63856187
   0.65186412   0.69046438   0.71287405   0.72041596   0.76712956
   0.78362514   0.78694148   0.81691638   0.85218817   0.88295044
   0.90297556   0.91826902   0.96170467   1.02746695]
nelec by numeric integration = 145.99999797626353
    CPU time for vxc     37.74 sec, wall time     15.64 sec
E1 = -4132.613578156126  Ecoul = 1911.2915678632753  Exc = -124.64907830353563
Extra cycle  E= -835.663984539634  delta_E= 6.87e-11  |g|= 1.64e-05  |ddm|= 4.02e-05
    CPU time for scf_cycle    587.20 sec, wall time    239.24 sec
    CPU time for SCF    587.20 sec, wall time    239.24 sec
converged SCF energy = -835.663984539634
nelec by numeric integration = 145.99999797626353
    CPU time for vxc     37.85 sec, wall time     15.62 sec
 ** Mulliken pop  **
pop of  0 C 1s            1.99081
pop of  0 C 2s            1.12333
pop of  0 C 2px           0.99467
pop of  0 C 2py           0.92620
pop of  0 C 2pz           0.95475
pop of  1 C 1s            1.99100
pop of  1 C 2s            1.17334
pop of  1 C 2px           0.98612
pop of  1 C 2py           0.93871
pop of  1 C 2pz           0.91898
pop of  2 C 1s            1.99103
pop of  2 C 2s            1.14037
pop of  2 C 2px           0.95263
pop of  2 C 2py           0.97622
pop of  2 C 2pz           1.00060
pop of  3 C 1s            1.99080
pop of  3 C 2s            1.10807
pop of  3 C 2px           1.03731
pop of  3 C 2py           0.96759
pop of  3 C 2pz           0.97233
pop of  4 C 1s            1.99092
pop of  4 C 2s            1.16879
pop of  4 C 2px           1.02987
pop of  4 C 2py           0.93308
pop of  4 C 2pz           0.99153
pop of  5 C 1s            1.99200
pop of  5 C 2s            1.28666
pop of  5 C 2px           0.90916
pop of  5 C 2py           0.92279
pop of  5 C 2pz           0.92139
pop of  6 C 1s            1.99109
pop of  6 C 2s            1.16982
pop of  6 C 2px           0.95657
pop of  6 C 2py           0.98172
pop of  6 C 2pz           0.94282
pop of  7 C 1s            1.99061
pop of  7 C 2s            1.09669
pop of  7 C 2px           1.03124
pop of  7 C 2py           1.02550
pop of  7 C 2pz           0.96937
pop of  8 C 1s            1.99038
pop of  8 C 2s            1.04854
pop of  8 C 2px           1.02421
pop of  8 C 2py           0.98606
pop of  8 C 2pz           0.97956
pop of  9 C 1s            1.99099
pop of  9 C 2s            1.13494
pop of  9 C 2px           1.00460
pop of  9 C 2py           0.92855
pop of  9 C 2pz           0.92161
pop of  10 C 1s           1.99154
pop of  10 C 2s           1.21537
pop of  10 C 2px          0.94134
pop of  10 C 2py          0.92647
pop of  10 C 2pz          0.94332
pop of  11 C 1s           1.99091
pop of  11 C 2s           1.09699
pop of  11 C 2px          1.04384
pop of  11 C 2py          0.97257
pop of  11 C 2pz          0.97526
pop of  12 C 1s           1.99113
pop of  12 C 2s           1.12414
pop of  12 C 2px          1.00131
pop of  12 C 2py          0.93232
pop of  12 C 2pz          0.92463
pop of  13 C 1s           1.99068
pop of  13 C 2s           1.08148
pop of  13 C 2px          0.99772
pop of  13 C 2py          0.98715
pop of  13 C 2pz          0.96328
pop of  14 C 1s           1.99039
pop of  14 C 2s           1.07574
pop of  14 C 2px          1.02676
pop of  14 C 2py          0.98727
pop of  14 C 2pz          1.03354
pop of  15 C 1s           1.99085
pop of  15 C 2s           1.16359
pop of  15 C 2px          0.98279
pop of  15 C 2py          0.94698
pop of  15 C 2pz          0.97828
pop of  16 C 1s           1.98999
pop of  16 C 2s           1.01580
pop of  16 C 2px          1.03497
pop of  16 C 2py          1.00350
pop of  16 C 2pz          1.01367
pop of  17 C 1s           1.99089
pop of  17 C 2s           1.13106
pop of  17 C 2px          0.97009
pop of  17 C 2py          0.95726
pop of  17 C 2pz          0.94781
pop of  18 C 1s           1.99128
pop of  18 C 2s           1.15569
pop of  18 C 2px          0.97063
pop of  18 C 2py          0.93553
pop of  18 C 2pz          0.94958
pop of  19 C 1s           1.99160
pop of  19 C 2s           1.21935
pop of  19 C 2px          0.97927
pop of  19 C 2py          0.90525
pop of  19 C 2pz          0.93198
pop of  20 C 1s           1.99104
pop of  20 C 2s           1.10504
pop of  20 C 2px          1.01265
pop of  20 C 2py          0.97506
pop of  20 C 2pz          1.00778
pop of  21 C 1s           1.99106
pop of  21 C 2s           1.07082
pop of  21 C 2px          1.01211
pop of  21 C 2py          1.01045
pop of  21 C 2pz          1.01641
pop of  22 H 1s           0.92883
pop of  23 H 1s           0.92685
pop of  24 H 1s           0.88850
pop of  25 H 1s           0.96915
pop of  26 H 1s           0.93629
pop of  27 H 1s           0.89452
pop of  28 H 1s           0.97940
pop of  29 H 1s           0.93696
pop of  30 H 1s           0.88558
pop of  31 H 1s           0.92185
pop of  32 H 1s           0.95612
pop of  33 H 1s           0.94268
pop of  34 H 1s           0.91448
pop of  35 H 1s           0.92759
 ** Mulliken atomic charges  **
charge of    0C =      0.01023
charge of    1C =     -0.00815
charge of    2C =     -0.06085
charge of    3C =     -0.07609
charge of    4C =     -0.11419
charge of    5C =     -0.03199
charge of    6C =     -0.04201
charge of    7C =     -0.11342
charge of    8C =     -0.02876
charge of    9C =      0.01930
charge of   10C =     -0.01803
charge of   11C =     -0.07957
charge of   12C =      0.02647
charge of   13C =     -0.02031
charge of   14C =     -0.11370
charge of   15C =     -0.06250
charge of   16C =     -0.05793
charge of   17C =      0.00289
charge of   18C =     -0.00271
charge of   19C =     -0.02745
charge of   20C =     -0.09157
charge of   21C =     -0.10086
charge of   22H =      0.07117
charge of   23H =      0.07315
charge of   24H =      0.11150
charge of   25H =      0.03085
charge of   26H =      0.06371
charge of   27H =      0.10548
charge of   28H =      0.02060
charge of   29H =      0.06304
charge of   30H =      0.11442
charge of   31H =      0.07815
charge of   32H =      0.04388
charge of   33H =      0.05732
charge of   34H =      0.08552
charge of   35H =      0.07241
Dipole moment(X, Y, Z, Debye):  0.10191,  0.83981, -0.15410
nelec by numeric integration = 145.99999797626353
    CPU time for vxc     38.12 sec, wall time     15.82 sec
E1 = -4132.613578156126  Ecoul = 1911.2915678632762  Exc = -124.64907830353565
nelec by numeric integration = 145.99999797626353
    CPU time for vxc     37.51 sec, wall time     15.52 sec
E1 = -4132.613578156126  Ecoul = 1911.2915678632758  Exc = -124.64907830353565
