System: uname_result(system='Linux', node='cosmopc18', release='5.15.0-97-generic', version='#107-Ubuntu SMP Wed Feb 7 13:26:48 UTC 2024', machine='x86_64')  Threads 4
Python 3.11.8 (main, Feb 26 2024, 21:39:34) [GCC 11.2.0]
numpy 1.26.4  scipy 1.11.4
Date: Tue Apr  9 10:30:31 2024
PySCF version 2.3.0
PySCF path  /home/saade/miniconda3/envs/tutorial/lib/python3.11/site-packages/pyscf

[ENV] PYSCFAD_BACKEND torch
[CONFIG] conf_file None
[INPUT] verbose = 5
[INPUT] max_memory = 4000 
[INPUT] num. atoms = 36
[INPUT] num. electrons = 146
[INPUT] charge = 0
[INPUT] spin (= nelec alpha-beta = 2S) = 0
[INPUT] symmetry False subgroup None
[INPUT] Mole.unit = angstrom
[INPUT] Symbol           X                Y                Z      unit          X                Y                Z       unit  Magmom
[INPUT]  1 C     -0.036801000000   3.460684000000   0.663979000000 AA   -0.069543811110   6.539744963664   1.254738462463 Bohr   0.0
[INPUT]  2 C      0.094171000000   3.473898000000  -0.621024000000 AA    0.177957398876   6.564715804674  -1.173565276782 Bohr   0.0
[INPUT]  3 C     -0.065051000000   5.123830000000   1.322556000000 AA   -0.122928574129   9.682635408830   2.499268624400 Bohr   0.0
[INPUT]  4 C      0.021630000000   2.502769000000   1.215546000000 AA    0.040874776074   4.729547963052   2.297049031811 Bohr   0.0
[INPUT]  5 C     -0.192473000000   5.061629000000  -1.136240000000 AA   -0.363721256373   9.565092554156  -2.147182411776 Bohr   0.0
[INPUT]  6 C     -0.101247000000   2.380677000000  -1.355132000000 AA   -0.191329100934   4.498827521051  -2.560828342634 Bohr   0.0
[INPUT]  7 C     -0.190610000000   6.189781000000  -0.725886000000 AA   -0.360200696603  11.696990861036  -1.371725737656 Bohr   0.0
[INPUT]  8 C     -0.092344000000   6.122320000000   0.737179000000 AA   -0.174504869247  11.569508046947   1.393066414781 Bohr   0.0
[INPUT]  9 C      0.091952000000   1.092744000000   0.703220000000 AA    0.173764096606   2.064986884262   1.328893205317 Bohr   0.0
[INPUT] 10 C     -0.014296000000   1.312427000000  -0.553271000000 AA   -0.027015524677   2.480127588485  -1.045530662664 Bohr   0.0
[INPUT] 11 C      0.025174000000   0.043586000000   1.414327000000 AA    0.047571965460   0.082365602865   2.672690680578 Bohr   0.0
[INPUT] 12 C      0.080112000000  -0.007998000000  -1.340103000000 AA    0.151389739291  -0.015114029544  -2.532427648708 Bohr   0.0
[INPUT] 13 C      0.011881000000  -1.195519000000   0.663699000000 AA    0.022451836086  -2.259203486714   1.254209339148 Bohr   0.0
[INPUT] 14 C     -0.128268000000  -1.127103000000  -0.737649000000 AA   -0.242391390546  -2.129915984176  -1.393954586059 Bohr   0.0
[INPUT] 15 C      0.140019000000  -2.316853000000   1.309694000000 AA    0.264597562235  -4.378217640877   2.474962966986 Bohr   0.0
[INPUT] 16 C      0.043972000000  -2.508786000000  -1.377452000000 AA    0.083095037149  -4.740918445143  -2.603007029734 Bohr   0.0
[INPUT] 17 C      0.012940000000  -3.635961000000   0.585132000000 AA    0.024453056052  -6.870970489600   1.105739226719 Bohr   0.0
[INPUT] 18 C     -0.043482000000  -3.567354000000  -0.809006000000 AA   -0.082169071348  -6.741322049372  -1.528799773130 Bohr   0.0
[INPUT] 19 C     -0.069282000000  -4.974516000000   1.535603000000 AA   -0.130924005362  -9.400472842267   2.901869106060 Bohr   0.0
[INPUT] 20 C      0.191546000000  -4.923650000000  -1.399619000000 AA    0.361969480256  -9.304350033215  -2.644896588738 Bohr   0.0
[INPUT] 21 C     -0.060434000000  -6.009652000000   0.763278000000 AA   -0.114203708612 -11.356596383945   1.442386376906 Bohr   0.0
[INPUT] 22 C     -0.012976000000  -5.915822000000  -0.829352000000 AA   -0.024521086192 -11.179283381677  -1.567248140860 Bohr   0.0
[INPUT] 23 H     -0.089971000000   4.757099000000   2.711416000000 AA   -0.170020549153   8.989614257442   5.123833649764 Bohr   0.0
[INPUT] 24 H      0.039319000000   2.463490000000   2.329085000000 AA    0.074302141492   4.655321410605   4.401332770833 Bohr   0.0
[INPUT] 25 H     -0.148147000000   4.935054000000  -2.504968000000 AA   -0.279957256176   9.325900469939  -4.733703470799 Bohr   0.0
[INPUT] 26 H      0.070277000000   2.521870000000  -2.410668000000 AA    0.132804282856   4.765643621757  -4.555502297253 Bohr   0.0
[INPUT] 27 H     -0.031034000000   7.012802000000  -1.150581000000 AA   -0.058645760550  13.252275145802  -2.174282974128 Bohr   0.0
[INPUT] 28 H     -0.096242000000   7.091005000000   1.056751000000 AA   -0.181871021680  13.400057397921   1.996969971860 Bohr   0.0
[INPUT] 29 H     -0.074122000000  -0.073896000000   2.648423000000 AA   -0.140070279805  -0.139643201701   5.004794131999 Bohr   0.0
[INPUT] 30 H     -0.107235000000   0.002417000000  -2.544720000000 AA   -0.202644780968   0.004567468043  -4.808823863703 Bohr   0.0
[INPUT] 31 H      0.032614000000  -2.505485000000   2.532927000000 AA    0.061631527827  -4.734680459206   4.786538323516 Bohr   0.0
[INPUT] 32 H      0.036749000000  -2.303831000000  -2.589558000000 AA    0.069445545352  -4.353609627283  -4.893555403676 Bohr   0.0
[INPUT] 33 H     -0.059568000000  -4.916444000000   2.532197000000 AA   -0.112567205788  -9.290732666761   4.785158823445 Bohr   0.0
[INPUT] 34 H      0.128813000000  -5.041887000000  -2.496188000000 AA    0.243421291284  -9.527785581005  -4.717111675426 Bohr   0.0
[INPUT] 35 H      0.085073000000  -7.223021000000   1.532014000000 AA    0.160764670595 -13.649531481982   2.895086878999 Bohr   0.0
[INPUT] 36 H      0.064498000000  -7.058476000000  -1.208568000000 AA    0.121883555582 -13.338586496815  -2.283862522913 Bohr   0.0
[INPUT] ---------------- BASIS SET ---------------- 
[INPUT] l, kappa, [nprim/nctr], expnt,             c_1 c_2 ...
[INPUT] H
[INPUT] 0    0    [3    /1   ]  3.42525091        0.15432897
                                0.62391373        0.53532814
                                0.1688554         0.44463454
[INPUT] C
[INPUT] 0    0    [3    /1   ]  71.616837         0.15432897
                                13.045096         0.53532814
                                3.5305122         0.44463454
[INPUT] 0    0    [3    /1   ]  2.9412494         -0.09996723
                                0.6834831         0.39951283
                                0.2222899         0.70011547
[INPUT] 1    0    [3    /1   ]  2.9412494         0.15591627
                                0.6834831         0.60768372
                                0.2222899         0.39195739

nuclear repulsion = 1514.36872358708
number of shells = 80
number of NR pGTOs = 372
number of NR cGTOs = 124
basis = sto3g
ecp = {}
CPU time:      7105.69
atom C rad-grids = 99, ang-grids = [ 50  50  50  50  50  50  50  50  50  50  50  50  50  50  50  50  50  50
  50  50  50  50  50  50  50  50  50  50  50  50  50  86  86  86  86  86
  86  86  86  86  86  86  86 434 434 434 434 434 434 434 434 434 590 590
 590 590 590 590 590 590 590 590 590 590 590 590 590 590 590 590 590 590
 590 590 590 590 590 590 590 434 434 434 434 434 434 434 434 434 434 434
 434 434 434 434 434 434 434 434 434]
atom H rad-grids = 99, ang-grids = [ 50  50  50  50  50  50  50  50  50  50  50  50  50  50  50  50  50  50
  50  50  50  50  50  50  50  50  50  50  86  86  86  86  86  86  86 434
 434 434 434 434 434 434 434 590 590 590 590 590 590 590 590 590 590 590
 590 590 590 590 590 590 590 590 590 590 590 590 590 590 590 434 434 434
 434 434 434 434 434 434 434 434 434 434 434 434 434 434 434 434 434 434
 434 434 434 434 434 434 434 434 434]
tot_boxes 5440, boxes in each direction [ 8 30 15]
Padding 0 grids
tot grids = 1157832


******** <class 'pyscf.dft.rks.RKS'> ********
method = RKS
initial guess = minao
damping factor = 0
level_shift factor = 0
DIIS = <class 'pyscf.scf.diis.CDIIS'>
diis_start_cycle = 1
diis_space = 8
SCF conv_tol = 1e-10
SCF conv_tol_grad = None
SCF max_cycles = 50
direct_scf = True
direct_scf_tol = 1e-13
chkfile to save SCF result = /home/saade/mlelec/tutorials/tmp3ydgaw6e
max_memory 4000 MB (current use 635 MB)
XC library pyscf.dft.libxc version 6.1.0
    S. Lehtola, C. Steigemann, M. J.T. Oliveira, and M. A.L. Marques.,  SoftwareX 7, 1–5 (2018)
XC functionals = b3lypg
    P. J. Stephens, F. J. Devlin, C. F. Chabalowski, and M. J. Frisch.,  J. Phys. Chem. 98, 11623 (1994)
radial grids: 
    Treutler-Ahlrichs [JCP 102, 346 (1995); DOI:10.1063/1.469408] (M4) radial grids
    
becke partition: Becke, JCP 88, 2547 (1988); DOI:10.1063/1.454033
pruning grids: <function nwchem_prune at 0x7f9db5616ca0>
grids dens level: 3
symmetrized grids: False
atomic radii adjust function: <function treutler_atomic_radii_adjust at 0x7f9db5617380>
User specified grid scheme (99, 590)
small_rho_cutoff = 1e-07
Set gradient conv threshold to 1e-05
Initial guess from minao.
nelec by numeric integration = 145.27510146799628
    CPU time for vxc     36.62 sec, wall time     15.41 sec
E1 = -4128.001703891921  Ecoul = 1897.8026232717043  Exc = -126.29278945993227
init E= -842.123146493072
cond(S) = 31.611399298479625
    CPU time for initialize scf     46.60 sec, wall time     17.79 sec
  HOMO = -0.219735169377009  LUMO = -0.14130305206084
  mo_energy =
[-1.01649248e+01 -1.01545225e+01 -1.01383322e+01 -1.01321163e+01
 -1.01313855e+01 -1.01284082e+01 -1.01278697e+01 -1.01257162e+01
 -1.01192700e+01 -1.01174635e+01 -1.01147998e+01 -1.01140131e+01
 -1.01104585e+01 -1.01100939e+01 -1.01079769e+01 -1.00995205e+01
 -1.00984768e+01 -1.00956675e+01 -1.00955640e+01 -1.00932005e+01
 -1.00786565e+01 -1.00708482e+01 -1.15494073e+00 -1.09261731e+00
 -1.05439631e+00 -1.03198501e+00 -9.75530435e-01 -9.56504786e-01
 -9.24001959e-01 -9.04178891e-01 -8.95331459e-01 -8.80051309e-01
 -8.16550678e-01 -7.55774198e-01 -7.22029346e-01 -7.04025609e-01
 -6.88762620e-01 -6.71822531e-01 -6.58042502e-01 -6.22028572e-01
 -5.94019879e-01 -5.77133626e-01 -5.70447580e-01 -5.50222122e-01
 -5.41883286e-01 -5.33170699e-01 -5.22965475e-01 -5.13203723e-01
 -5.06153564e-01 -4.91137433e-01 -4.85835749e-01 -4.75210539e-01
 -4.65329066e-01 -4.53873372e-01 -4.40544749e-01 -4.33506505e-01
 -4.24653142e-01 -4.22594122e-01 -4.12529053e-01 -4.03158632e-01
 -3.81303304e-01 -3.68745930e-01 -3.59308465e-01 -3.54052011e-01
 -3.35023129e-01 -3.29392200e-01 -3.17923913e-01 -3.14050435e-01
 -3.10430648e-01 -3.02886416e-01 -2.90211708e-01 -2.84506447e-01
 -2.19735169e-01 -1.41303052e-01 -7.11306241e-02 -3.92231736e-02
 -3.18086552e-02 -4.83476094e-03  6.72941044e-03  1.32996949e-02
  2.22539217e-02  5.12492697e-02  6.47926034e-02  7.91111573e-02
  1.03007793e-01  1.08846232e-01  1.17159533e-01  1.25649532e-01
  1.44796263e-01  1.59400244e-01  1.61524941e-01  1.75880781e-01
  1.96178868e-01  2.05075518e-01  2.23678568e-01  2.30106309e-01
  2.55273455e-01  2.63903022e-01  2.94832128e-01  2.99415998e-01
  3.07542364e-01  3.33114683e-01  3.71490365e-01  4.26868027e-01
  4.30476733e-01  4.53133626e-01  4.61126468e-01  4.85419279e-01
  4.95690989e-01  5.22056118e-01  5.38369769e-01  5.49794962e-01
  5.66627144e-01  5.93357081e-01  6.34303570e-01  6.44987534e-01
  6.98853001e-01  7.40767107e-01  7.60123618e-01  7.75876494e-01
  7.93922246e-01  8.89271387e-01  9.17776907e-01  9.91236589e-01]
nelec by numeric integration = 145.9999975288188
    CPU time for vxc     37.84 sec, wall time     15.65 sec
E1 = -4143.188158746963  Ecoul = 1918.3592722009032  Exc = -124.93177709073098
cycle= 1 E= -835.391940049713  delta_E= 6.73  |g|= 0.304  |ddm|= 9.36
    CPU time for cycle= 1     38.30 sec, wall time     15.73 sec
  HOMO = -0.0989198057540418  LUMO = 0.0120428261809249
  mo_energy =
[-10.06604895 -10.03339702 -10.03199041 -10.02476934 -10.00098373
  -9.99753699  -9.99418191  -9.99004611  -9.98971752  -9.98894957
  -9.98643102  -9.98341419  -9.97953401  -9.97285457  -9.97164608
  -9.96967782  -9.96307059  -9.95660999  -9.95234321  -9.94607697
  -9.92789521  -9.91350436  -0.85418846  -0.84440239  -0.80418423
  -0.78736946  -0.76214102  -0.74143378  -0.71908396  -0.70172733
  -0.69368277  -0.67509889  -0.63546385  -0.59881995  -0.56505879
  -0.5574844   -0.54307505  -0.53863277  -0.51842759  -0.49038749
  -0.46719833  -0.45311099  -0.44590995  -0.4391819   -0.43204191
  -0.41713836  -0.4033691   -0.39847356  -0.3913491   -0.37768248
  -0.36564323  -0.36193402  -0.34872464  -0.34033227  -0.3289499
  -0.32420548  -0.32214539  -0.30421797  -0.29763733  -0.29075185
  -0.27881148  -0.26893681  -0.25648026  -0.24725417  -0.23713287
  -0.22337685  -0.21737778  -0.19902287  -0.19522689  -0.18865918
  -0.16860547  -0.16076059  -0.09891981   0.01204283   0.09018575
   0.10750553   0.11899881   0.14407182   0.1590104    0.17596188
   0.18946016   0.19883064   0.21414431   0.23338469   0.24039863
   0.25101455   0.26146581   0.27811067   0.29300383   0.30741739
   0.32234918   0.32729654   0.33830873   0.35544621   0.36439957
   0.38186337   0.40033025   0.41164046   0.44524914   0.47531973
   0.4851739    0.49472266   0.53731684   0.57167919   0.5898661
   0.60125421   0.61837111   0.63267186   0.65447623   0.67075993
   0.70463953   0.71246659   0.72720848   0.76444117   0.77299182
   0.81782284   0.89062668   0.91686537   0.93509076   0.95933536
   0.96941344   1.0360479    1.1042249    1.23248186]
nelec by numeric integration = 145.9999975843902
    CPU time for vxc     37.62 sec, wall time     15.62 sec
E1 = -4136.593449806053  Ecoul = 1911.5804999395477  Exc = -124.74264209333165
cycle= 2 E= -835.38686837276  delta_E= 0.00507  |g|= 0.342  |ddm|= 1.09
    CPU time for cycle= 2     37.96 sec, wall time     15.67 sec
  HOMO = -0.117516479670424  LUMO = -0.00433252323533275
  mo_energy =
[-1.00405199e+01 -1.00398852e+01 -1.00371534e+01 -1.00337616e+01
 -1.00252252e+01 -1.00235487e+01 -1.00171789e+01 -1.00164436e+01
 -1.00155759e+01 -1.00140291e+01 -1.00133517e+01 -1.00130284e+01
 -1.00115530e+01 -1.00072502e+01 -1.00070654e+01 -1.00013514e+01
 -1.00009264e+01 -1.00000799e+01 -9.99977938e+00 -9.99694958e+00
 -9.99118577e+00 -9.97284252e+00 -9.02254191e-01 -8.50726000e-01
 -8.26366053e-01 -8.13678186e-01 -7.76938551e-01 -7.59751353e-01
 -7.35491427e-01 -7.21894717e-01 -7.16707970e-01 -7.03554823e-01
 -6.61343537e-01 -6.08421809e-01 -5.89154483e-01 -5.67112809e-01
 -5.63763993e-01 -5.50205314e-01 -5.36315184e-01 -5.04860890e-01
 -4.85909765e-01 -4.72021595e-01 -4.66002858e-01 -4.45700585e-01
 -4.40387475e-01 -4.33031870e-01 -4.22007058e-01 -4.13913077e-01
 -4.02460261e-01 -3.96581971e-01 -3.91824963e-01 -3.83533927e-01
 -3.60414846e-01 -3.57591403e-01 -3.52738601e-01 -3.34344066e-01
 -3.31689591e-01 -3.29204027e-01 -3.19075049e-01 -3.03127585e-01
 -2.95280702e-01 -2.74815554e-01 -2.65855372e-01 -2.59462826e-01
 -2.44625974e-01 -2.41577149e-01 -2.31015059e-01 -2.23936506e-01
 -2.11920947e-01 -2.10216510e-01 -2.00218852e-01 -1.89878727e-01
 -1.17516480e-01 -4.33252324e-03  6.96108668e-02  1.04560906e-01
  1.08095600e-01  1.36977166e-01  1.49561585e-01  1.55137470e-01
  1.63929456e-01  1.80469101e-01  1.89745493e-01  2.13030449e-01
  2.39508247e-01  2.44563443e-01  2.55429581e-01  2.63992950e-01
  2.73218175e-01  2.97735970e-01  3.02233460e-01  3.11378503e-01
  3.34167976e-01  3.44184571e-01  3.54795228e-01  3.58964531e-01
  3.95118278e-01  4.04455306e-01  4.31376031e-01  4.45665898e-01
  4.52359836e-01  4.76663989e-01  5.16714725e-01  5.65527070e-01
  5.70544458e-01  5.82044928e-01  5.91487970e-01  6.26985521e-01
  6.39942542e-01  6.60568624e-01  6.80497241e-01  6.88062592e-01
  7.10350833e-01  7.38489885e-01  7.79148611e-01  7.82163524e-01
  8.45701419e-01  8.86148231e-01  9.06996552e-01  9.18494576e-01
  9.46635329e-01  1.04017185e+00  1.06756208e+00  1.15564050e+00]
nelec by numeric integration = 145.9999975801959
    CPU time for vxc     37.82 sec, wall time     15.64 sec
E1 = -4139.0691977165725  Ecoul = 1914.0826861427713  Exc = -124.79883161788979
cycle= 3 E= -835.416619604614  delta_E= -0.0298  |g|= 0.201  |ddm|= 0.834
    CPU time for cycle= 3     38.31 sec, wall time     15.73 sec
  HOMO = -0.122963307048281  LUMO = -0.0126993350884994
  mo_energy =
[-10.04773203 -10.03681122 -10.03278126 -10.03262186 -10.03086331
 -10.02892403 -10.02783893 -10.02720758 -10.02675184 -10.02610459
 -10.01850433 -10.01843471 -10.0180318  -10.01597176 -10.01523803
 -10.01518863 -10.01500502 -10.01255412 -10.01143666 -10.01033081
 -10.00775659 -10.00692547  -0.898225    -0.86306013  -0.8346126
  -0.8193933   -0.78622997  -0.75979894  -0.74485769  -0.73256445
  -0.72361694  -0.70688406  -0.66116073  -0.62044302  -0.58978307
  -0.57312143  -0.56545948  -0.56104956  -0.54228747  -0.51223806
  -0.4874008   -0.47430722  -0.46697734  -0.45385896  -0.44760773
  -0.43817819  -0.4273229   -0.41604666  -0.40852815  -0.40116513
  -0.39620442  -0.3841535   -0.37047184  -0.36185155  -0.35235537
  -0.34174261  -0.33794363  -0.33265866  -0.32456675  -0.30775387
  -0.30233765  -0.28102611  -0.27214141  -0.26275116  -0.25336648
  -0.24771225  -0.2407412   -0.22643888  -0.22325642  -0.21592694
  -0.2009793   -0.19367131  -0.12296331  -0.01269934   0.06611789
   0.09165776   0.10062835   0.13137395   0.14374819   0.15290235
   0.16095018   0.17597872   0.19075411   0.2089317    0.23210231
   0.24130353   0.24732583   0.25421098   0.27567371   0.29508357
   0.29924308   0.30330969   0.33034246   0.33994803   0.34838586
   0.35658059   0.38083799   0.39525815   0.42675341   0.44151123
   0.45238774   0.46888384   0.50845146   0.56485305   0.5667951
   0.57263688   0.58891822   0.62433271   0.62762451   0.6466407
   0.68006655   0.68242206   0.69896161   0.7377739    0.76585577
   0.77948402   0.84467757   0.88495809   0.90257044   0.92309612
   0.93045616   1.01991383   1.06398043   1.15706964]
nelec by numeric integration = 145.9999975550118
    CPU time for vxc     38.38 sec, wall time     15.79 sec
E1 = -4139.62704616413  Ecoul = 1914.6426751830606  Exc = -124.81557193920193
cycle= 4 E= -835.431219333193  delta_E= -0.0146  |g|= 0.0432  |ddm|= 0.39
    CPU time for cycle= 4     38.71 sec, wall time     15.85 sec
  HOMO = -0.1230905135944  LUMO = -0.0117693525458432
  mo_energy =
[-10.04123364 -10.03587691 -10.03512628 -10.03471468 -10.02624893
 -10.02601948 -10.02565229 -10.02517637 -10.0240764  -10.02259768
 -10.02206976 -10.02101999 -10.02068324 -10.02028206 -10.01523282
 -10.01278231 -10.01123693 -10.01055591 -10.0098051  -10.00700129
 -10.00616806 -10.00570687  -0.89936315  -0.85921754  -0.83323212
  -0.81789918  -0.78426923  -0.76052     -0.74387172  -0.73057874
  -0.72246543  -0.70605662  -0.66174828  -0.61831125  -0.59063106
  -0.57187181  -0.56480711  -0.55942424  -0.54082633  -0.51052975
  -0.48839809  -0.47328807  -0.46688789  -0.45220393  -0.44567027
  -0.43692075  -0.4271387   -0.41621561  -0.40678626  -0.40080906
  -0.39662259  -0.38486075  -0.36745622  -0.36140622  -0.35345921
  -0.34034597  -0.33614581  -0.33222312  -0.32417938  -0.30713333
  -0.30101939  -0.28021432  -0.27104227  -0.26254137  -0.25340546
  -0.24688447  -0.24015656  -0.22676265  -0.2214111   -0.21547999
  -0.20126223  -0.19354921  -0.12309051  -0.01176935   0.06592417
   0.09379906   0.10145694   0.1325041    0.14406651   0.15382651
   0.16111988   0.17615483   0.19039396   0.20982817   0.23468539
   0.24089315   0.24832843   0.25519171   0.27385448   0.29686145
   0.29908627   0.30373036   0.33122777   0.34014214   0.35026764
   0.35642384   0.38273742   0.39753998   0.42711693   0.44289861
   0.45215167   0.47047403   0.50979923   0.56471881   0.56780407
   0.57392897   0.58990286   0.62425518   0.62932975   0.64941117
   0.67993614   0.68423753   0.70118232   0.73607728   0.76658164
   0.77886188   0.84517803   0.88506922   0.90342767   0.92103118
   0.93361131   1.02418141   1.06531884   1.15911528]
nelec by numeric integration = 145.99999756009265
    CPU time for vxc     37.77 sec, wall time     15.64 sec
E1 = -4139.525104942573  Ecoul = 1914.5366202209962  Exc = -124.81204189946088
cycle= 5 E= -835.43180303396  delta_E= -0.000584  |g|= 0.0193  |ddm|= 0.0931
    CPU time for cycle= 5     38.31 sec, wall time     15.72 sec
  HOMO = -0.122332789714758  LUMO = -0.0108991448002972
  mo_energy =
[-10.04126194 -10.03243457 -10.03212905 -10.03184601 -10.02698856
 -10.02651603 -10.02426516 -10.02353698 -10.02315652 -10.02177057
 -10.02077122 -10.02070355 -10.01707958 -10.01648491 -10.0142795
 -10.01252115 -10.01009283 -10.00990746 -10.00909341 -10.00887676
 -10.00621435 -10.00614767  -0.89759913  -0.85905935  -0.83237222
  -0.81728209  -0.78333517  -0.75921385  -0.74299388  -0.72992864
  -0.72202014  -0.7056428   -0.66058286  -0.61770877  -0.58934831
  -0.5712706   -0.56419004  -0.55869178  -0.54051375  -0.5099832
  -0.48729803  -0.472971    -0.46602324  -0.45183893  -0.44529199
  -0.43643865  -0.42630428  -0.41520669  -0.40606844  -0.39989508
  -0.39559621  -0.38426888  -0.3671974   -0.36118351  -0.35254042
  -0.34013379  -0.33639351  -0.33160268  -0.32361733  -0.30651812
  -0.30061501  -0.27948307  -0.27037969  -0.26162234  -0.25260386
  -0.24653325  -0.23932052  -0.22633847  -0.22103199  -0.21498681
  -0.20068171  -0.19288425  -0.12233279  -0.01089914   0.06694738
   0.09445679   0.10218819   0.1329641    0.14478869   0.15457476
   0.16189727   0.17679291   0.19060562   0.21025043   0.23483661
   0.24117866   0.24914548   0.25604465   0.27493176   0.29704506
   0.29958685   0.30406814   0.33170003   0.34098895   0.35002493
   0.35742072   0.38337643   0.39818035   0.42780784   0.44352891
   0.45289302   0.47107403   0.51065215   0.56581329   0.56850008
   0.57461934   0.59045001   0.62559763   0.62980887   0.64991805
   0.6807641    0.68446105   0.70129482   0.73748388   0.7680323
   0.78004515   0.84596048   0.88611609   0.90414389   0.92273059
   0.93382589   1.02489439   1.06581753   1.16033894]
nelec by numeric integration = 145.99999755960823
    CPU time for vxc     37.85 sec, wall time     15.65 sec
E1 = -4139.4484051487725  Ecoul = 1914.4574249668021  Exc = -124.80967616251729
cycle= 6 E= -835.43193275741  delta_E= -0.00013  |g|= 0.00348  |ddm|= 0.0314
    CPU time for cycle= 6     38.35 sec, wall time     15.73 sec
  HOMO = -0.122227409013922  LUMO = -0.0107071133933749
  mo_energy =
[-10.04150631 -10.03250669 -10.0322031  -10.03217241 -10.02742935
 -10.02596574 -10.02365099 -10.02288115 -10.02237701 -10.0218124
 -10.02141689 -10.02002289 -10.01775442 -10.01657161 -10.01368242
 -10.01261413 -10.01070041 -10.00999404 -10.00910776 -10.00810772
 -10.00618376 -10.00575212  -0.89762427  -0.85893509  -0.83239617
  -0.81731437  -0.78338667  -0.75907969  -0.74291518  -0.72984285
  -0.72181914  -0.70563571  -0.66048631  -0.61762983  -0.58932151
  -0.57117131  -0.56421824  -0.5587144   -0.54035762  -0.50995273
  -0.48713243  -0.47302884  -0.46599684  -0.45175399  -0.44529869
  -0.43648801  -0.4262334   -0.41524834  -0.4060791   -0.39989217
  -0.3955006   -0.38411053  -0.36714355  -0.36113993  -0.35248607
  -0.3399693   -0.33621132  -0.33156624  -0.32350145  -0.30652481
  -0.30059029  -0.2795377   -0.27042107  -0.26153676  -0.25257875
  -0.24645224  -0.23927621  -0.2261954   -0.22090773  -0.21489086
  -0.20065512  -0.19281122  -0.12222741  -0.01070711   0.06707582
   0.09453782   0.10228861   0.13306197   0.14485763   0.15445207
   0.16187221   0.17669072   0.19059596   0.21026955   0.23488744
   0.24132906   0.24916513   0.25602686   0.2749512    0.29714828
   0.29971119   0.30417551   0.33180573   0.34099952   0.35025227
   0.35747981   0.38345062   0.39822418   0.42803478   0.44361129
   0.45289112   0.47118658   0.51065507   0.56581131   0.56846317
   0.57464254   0.59036292   0.62573805   0.62996155   0.64993918
   0.68095777   0.68459727   0.70154186   0.73779113   0.76802068
   0.78020076   0.84613343   0.8861236    0.90419678   0.92278316
   0.93396795   1.02470888   1.0657366    1.15996295]
nelec by numeric integration = 145.99999755979997
    CPU time for vxc     38.14 sec, wall time     15.72 sec
E1 = -4139.446163978668  Ecoul = 1914.455237331058  Exc = -124.80973339691158
cycle= 7 E= -835.431936457444  delta_E= -3.7e-06  |g|= 0.00129  |ddm|= 0.0063
    CPU time for cycle= 7     38.60 sec, wall time     15.79 sec
  HOMO = -0.122272262470198  LUMO = -0.0107177147038554
  mo_energy =
[-10.0414034  -10.03248919 -10.03227035 -10.03226386 -10.0273518
 -10.02609971 -10.02371325 -10.02280441 -10.02253019 -10.02177333
 -10.02139456 -10.02037735 -10.01752172 -10.01659197 -10.01391409
 -10.01257836 -10.01051121 -10.0099405  -10.00899162 -10.00834613
 -10.00607559 -10.00587393  -0.89764345  -0.8589618   -0.83239666
  -0.81730256  -0.78339224  -0.75913247  -0.74294087  -0.7298811
  -0.72187146  -0.70560265  -0.6604999   -0.61764427  -0.58933881
  -0.57119986  -0.56421264  -0.558746    -0.54040465  -0.50997837
  -0.48717341  -0.47301676  -0.46600563  -0.4517848   -0.44531524
  -0.43647988  -0.42625817  -0.41524027  -0.40610574  -0.39989285
  -0.39552871  -0.38415455  -0.36715452  -0.36111662  -0.35249911
  -0.34001341  -0.33623806  -0.33156856  -0.32351241  -0.30651042
  -0.30060675  -0.27952299  -0.27041035  -0.2615786   -0.25257747
  -0.24644616  -0.23929072  -0.22616466  -0.22093935  -0.21488941
  -0.20063095  -0.1928143   -0.12227226  -0.01071771   0.0670516
   0.09450137   0.10225824   0.13305817   0.1448551    0.15448613
   0.16188749   0.17674821   0.19066342   0.21028249   0.23488416
   0.24137098   0.24915087   0.25602773   0.27497127   0.29712885
   0.29971451   0.30418412   0.33177026   0.34097343   0.3501925
   0.35745348   0.38340671   0.39820708   0.42796119   0.44360377
   0.45293341   0.47113598   0.51066014   0.56577455   0.56844838
   0.57460029   0.59035327   0.62566925   0.62992447   0.6499052
   0.6809063    0.68456953   0.70148523   0.7377175    0.76799489
   0.7801643    0.84609229   0.88613211   0.90421084   0.92276131
   0.93392568   1.02471169   1.06578219   1.16004315]
nelec by numeric integration = 145.99999755977893
    CPU time for vxc     37.97 sec, wall time     15.61 sec
E1 = -4139.4480020551055  Ecoul = 1914.4571123588296  Exc = -124.80977087537747
cycle= 8 E= -835.431936984576  delta_E= -5.27e-07  |g|= 0.000417  |ddm|= 0.00222
    CPU time for cycle= 8     38.41 sec, wall time     15.68 sec
  HOMO = -0.122295797691861  LUMO = -0.010732084450308
  mo_energy =
[-10.0414258  -10.03250151 -10.03225829 -10.03222738 -10.02736606
 -10.02610644 -10.02377234 -10.02297805 -10.02257403 -10.0218099
 -10.02138996 -10.02035042 -10.01756811 -10.01662864 -10.01390264
 -10.01258179 -10.01055221 -10.00992665 -10.00898494 -10.00831394
 -10.00609397 -10.0058621   -0.89766599  -0.85898222  -0.83240827
  -0.8173085   -0.78340787  -0.75913871  -0.7429543   -0.7298947
  -0.72187974  -0.70560497  -0.66052042  -0.61766385  -0.58934878
  -0.57120958  -0.56422266  -0.55875172  -0.54041366  -0.50998673
  -0.48718544  -0.47301826  -0.46601899  -0.45179323  -0.44532466
  -0.4364835   -0.42626378  -0.41525251  -0.40611601  -0.39990815
  -0.39554083  -0.38415872  -0.36717276  -0.36112345  -0.35250728
  -0.34001483  -0.33624637  -0.33157447  -0.32352338  -0.30651919
  -0.30061305  -0.27953147  -0.27042289  -0.26158127  -0.25258673
  -0.24645893  -0.23930402  -0.2261805   -0.22094988  -0.21490035
  -0.20064272  -0.19282216  -0.1222958   -0.01073208   0.06703715
   0.09449153   0.10225032   0.13304439   0.14484064   0.15447787
   0.1618815    0.17674029   0.1906544    0.21027382   0.23487401
   0.24135683   0.2491455    0.25602069   0.27496102   0.29712307
   0.29969922   0.30416439   0.3317647    0.34096895   0.35019255
   0.35744424   0.38339832   0.39819686   0.42795513   0.44358455
   0.45291996   0.47113408   0.51064567   0.56577158   0.56844709
   0.5745947    0.59035389   0.62566456   0.62990874   0.64989575
   0.68089318   0.68455823   0.70147501   0.73769217   0.76798497
   0.78014012   0.84606297   0.88612456   0.90420027   0.92274445
   0.93391217   1.02469937   1.06577881   1.16002198]
nelec by numeric integration = 145.99999755977234
    CPU time for vxc     37.71 sec, wall time     15.58 sec
E1 = -4139.449539323423  Ecoul = 1914.4586785797114  Exc = -124.8097998813157
cycle= 9 E= -835.43193703795  delta_E= -5.34e-08  |g|= 0.000123  |ddm|= 0.000673
    CPU time for cycle= 9     38.25 sec, wall time     15.66 sec
  HOMO = -0.122299728320992  LUMO = -0.0107309921794663
  mo_energy =
[-10.04142632 -10.03252129 -10.03224568 -10.03224417 -10.02736462
 -10.026111   -10.0237606  -10.02294807 -10.02256702 -10.02179913
 -10.02136134 -10.02035664 -10.01757065 -10.01664009 -10.01389419
 -10.01257364 -10.01055806 -10.00992858 -10.00900135 -10.00833745
 -10.00609675 -10.00588079  -0.89766599  -0.85898036  -0.83240879
  -0.81730955  -0.78340627  -0.75914252  -0.74295308  -0.72989513
  -0.72188143  -0.7056061   -0.66052182  -0.61766146  -0.58935187
  -0.57121089  -0.56422334  -0.55874886  -0.54041398  -0.50998795
  -0.48718669  -0.47302058  -0.46601903  -0.45179157  -0.44532303
  -0.43648226  -0.42626489  -0.41525403  -0.40611313  -0.39990742
  -0.39554265  -0.38416119  -0.36716991  -0.36112305  -0.3525105
  -0.34001717  -0.33624593  -0.33157643  -0.3235247   -0.30651924
  -0.3006123   -0.27953179  -0.27042189  -0.26158359  -0.25258628
  -0.24645703  -0.23930232  -0.22618102  -0.22095047  -0.21490072
  -0.20064354  -0.19282345  -0.12229973  -0.01073099   0.06703585
   0.09449226   0.10224792   0.13304524   0.14484152   0.15448176
   0.16188122   0.17674105   0.190655     0.21027413   0.23487565
   0.2413552    0.24914668   0.25602187   0.27495711   0.2971227
   0.29969912   0.30416666   0.33176511   0.34096954   0.35019093
   0.35744267   0.38340221   0.3981954    0.42795213   0.44358446
   0.45291608   0.47113014   0.51064287   0.56577148   0.56844571
   0.57459658   0.59035454   0.62566187   0.62990809   0.64989638
   0.68088906   0.68455498   0.70147063   0.73769109   0.76798887
   0.78013961   0.84606611   0.88611901   0.90419844   0.92273867
   0.93391153   1.02470486   1.06577998   1.16002919]
nelec by numeric integration = 145.9999975597552
    CPU time for vxc     38.22 sec, wall time     15.75 sec
E1 = -4139.449426120058  Ecoul = 1914.4585657056118  Exc = -124.8098002151733
cycle= 10 E= -835.431937042542  delta_E= -4.59e-09  |g|= 5.52e-05  |ddm|= 0.000232
    CPU time for cycle= 10     38.74 sec, wall time     15.83 sec
  HOMO = -0.122298198548185  LUMO = -0.0107290065987668
  mo_energy =
[-10.04142249 -10.03251407 -10.03224795 -10.03224427 -10.02736039
 -10.02610638 -10.02375707 -10.02295526 -10.02256303 -10.02179689
 -10.02138027 -10.02035621 -10.01756217 -10.01663497 -10.01389917
 -10.01258164 -10.01055946 -10.00993442 -10.00900478 -10.0083267
 -10.00610638 -10.00587428  -0.89766815  -0.85897782  -0.83240886
  -0.81731172  -0.78340484  -0.75914282  -0.74295192  -0.72989309
  -0.72188036  -0.70561028  -0.66052137  -0.61766079  -0.58935237
  -0.57120954  -0.56422434  -0.55874746  -0.54041231  -0.50998648
  -0.4871871   -0.47302199  -0.46601977  -0.45179084  -0.44532197
  -0.43648348  -0.42626502  -0.41525381  -0.40611181  -0.39990818
  -0.3955429   -0.38416013  -0.36716839  -0.3611259   -0.35250891
  -0.34001552  -0.33624448  -0.33157739  -0.32352501  -0.30652077
  -0.30061132  -0.27953151  -0.27042138  -0.26158366  -0.25258508
  -0.24645854  -0.23930172  -0.2261844   -0.22094854  -0.21490221
  -0.20064623  -0.19282566  -0.1222982   -0.01072901   0.06703529
   0.094494     0.10224965   0.13304398   0.14484163   0.15447729
   0.16187929   0.17674031   0.19065096   0.210273     0.23487644
   0.2413521    0.24914653   0.25602157   0.27495689   0.29712428
   0.29969788   0.30416485   0.33176649   0.34096976   0.35019304
   0.35744265   0.38340351   0.39819863   0.42795354   0.44358497
   0.452915     0.47113286   0.51064523   0.56577099   0.56844486
   0.57459698   0.59035332   0.62566313   0.62991072   0.64989921
   0.68089076   0.68455685   0.70147291   0.73769117   0.76799005
   0.78013921   0.8460642    0.88611888   0.90419635   0.92273895
   0.93391461   1.02470703   1.06577428   1.16002181]
nelec by numeric integration = 145.99999755975966
    CPU time for vxc     38.26 sec, wall time     15.73 sec
E1 = -4139.44941034735  Ecoul = 1914.4585492426224  Exc = -124.80979952583576
cycle= 11 E= -835.431937043486  delta_E= -9.44e-10  |g|= 1.45e-05  |ddm|= 9.03e-05
    CPU time for cycle= 11     38.61 sec, wall time     15.79 sec
  HOMO = -0.122298339524576  LUMO = -0.0107284653670112
  mo_energy =
[-10.04142064 -10.03251424 -10.03224807 -10.0322424  -10.02736061
 -10.02610903 -10.02375901 -10.02295325 -10.02256558 -10.0217947
 -10.02137853 -10.02035543 -10.01756446 -10.01663703 -10.01389571
 -10.0125808  -10.01055744 -10.00993406 -10.00900269 -10.008327
 -10.00610109 -10.00587389  -0.89766715  -0.8589779   -0.83240847
  -0.81731104  -0.78340477  -0.75914239  -0.7429514   -0.72989313
  -0.72188037  -0.70560916  -0.66052096  -0.61766031  -0.58935181
  -0.57120944  -0.56422393  -0.55874717  -0.54041264  -0.50998631
  -0.48718661  -0.47302142  -0.46601944  -0.45179073  -0.44532168
  -0.43648304  -0.4262646   -0.41525357  -0.40611177  -0.39990755
  -0.39554245  -0.3841603   -0.36716821  -0.36112521  -0.35250931
  -0.34001564  -0.3362447   -0.33157697  -0.3235244   -0.30652028
  -0.30061151  -0.27953112  -0.2704212   -0.26158312  -0.25258482
  -0.24645796  -0.23930118  -0.22618325  -0.22094854  -0.21490139
  -0.20064545  -0.19282471  -0.12229834  -0.01072847   0.067036
   0.09449408   0.1022498    0.13304478   0.14484182   0.15447813
   0.16187999   0.17674074   0.19065182   0.21027323   0.23487655
   0.24135336   0.24914711   0.25602223   0.27495718   0.29712436
   0.29969826   0.30416551   0.3317663    0.34096984   0.35019279
   0.35744289   0.38340392   0.39819885   0.42795342   0.44358513
   0.45291539   0.47113302   0.51064559   0.56577101   0.56844516
   0.57459764   0.59035319   0.62566322   0.62991079   0.64989897
   0.68089058   0.6845569    0.70147302   0.73769163   0.76799086
   0.78013963   0.84606452   0.88611973   0.90419751   0.92273925
   0.93391443   1.02470696   1.06577542   1.16002331]
nelec by numeric integration = 145.99999755975847
    CPU time for vxc     38.05 sec, wall time     15.65 sec
E1 = -4139.449369468237  Ecoul = 1914.458507575152  Exc = -124.80979873754795
cycle= 12 E= -835.431937043555  delta_E= -6.91e-11  |g|= 7.8e-06  |ddm|= 3.13e-05
    CPU time for cycle= 12     38.76 sec, wall time     15.76 sec
  HOMO = -0.122298591904502  LUMO = -0.0107286033173374
  mo_energy =
[-10.04142229 -10.03251521 -10.03224717 -10.03224422 -10.02736065
 -10.02610622 -10.02375636 -10.02295487 -10.02256259 -10.02179808
 -10.02137716 -10.02035596 -10.0175619  -10.01663553 -10.01389858
 -10.01258018 -10.01055853 -10.00993255 -10.00900173 -10.00832761
 -10.00610364 -10.00587438  -0.89766766  -0.85897771  -0.83240836
  -0.81731071  -0.78340463  -0.75914255  -0.74295179  -0.72989305
  -0.72188015  -0.70560903  -0.66052118  -0.61766058  -0.58935204
  -0.57120945  -0.56422389  -0.55874752  -0.54041218  -0.50998647
  -0.4871868   -0.47302131  -0.46601937  -0.45179066  -0.44532195
  -0.43648302  -0.42626477  -0.41525361  -0.40611179  -0.39990777
  -0.39554259  -0.38416023  -0.36716823  -0.36112512  -0.35250895
  -0.34001549  -0.33624445  -0.33157678  -0.32352458  -0.30652002
  -0.30061112  -0.27953122  -0.27042114  -0.26158332  -0.25258495
  -0.24645796  -0.23930153  -0.22618334  -0.22094836  -0.21490145
  -0.20064544  -0.1928248   -0.12229859  -0.0107286    0.06703576
   0.09449399   0.10224981   0.13304456   0.14484202   0.15447828
   0.16188002   0.176741     0.19065193   0.21027357   0.23487673
   0.2413532    0.24914671   0.25602191   0.27495712   0.29712429
   0.29969828   0.3041655    0.3317665    0.34096987   0.35019286
   0.35744291   0.38340343   0.39819838   0.42795359   0.44358529
   0.4529155    0.47113274   0.51064511   0.56577102   0.56844541
   0.57459712   0.59035356   0.62566323   0.62991068   0.64989922
   0.68089093   0.6845571    0.70147304   0.73769145   0.76799028
   0.78013947   0.84606468   0.88611946   0.90419737   0.92273922
   0.93391467   1.02470717   1.06577579   1.16002329]
nelec by numeric integration = 145.99999755976017
    CPU time for vxc     37.77 sec, wall time     15.60 sec
E1 = -4139.449382512647  Ecoul = 1914.4585204165269  Exc = -124.80979853448696
Extra cycle  E= -835.43193704353  delta_E= 2.5e-11  |g|= 1.29e-05  |ddm|= 2.59e-05
    CPU time for scf_cycle    546.44 sec, wall time    222.45 sec
    CPU time for SCF    546.44 sec, wall time    222.45 sec
converged SCF energy = -835.43193704353
nelec by numeric integration = 145.99999755976017
    CPU time for vxc     37.94 sec, wall time     15.68 sec
 ** Mulliken pop  **
pop of  0 C 1s            1.99149
pop of  0 C 2s            1.04593
pop of  0 C 2px           1.00392
pop of  0 C 2py           1.00514
pop of  0 C 2pz           1.00692
pop of  1 C 1s            1.99105
pop of  1 C 2s            1.12420
pop of  1 C 2px           0.97750
pop of  1 C 2py           0.90481
pop of  1 C 2pz           0.97113
pop of  2 C 1s            1.99258
pop of  2 C 2s            1.18864
pop of  2 C 2px           0.97147
pop of  2 C 2py           0.93573
pop of  2 C 2pz           0.92323
pop of  3 C 1s            1.99153
pop of  3 C 2s            1.06653
pop of  3 C 2px           0.99134
pop of  3 C 2py           1.00030
pop of  3 C 2pz           1.02363
pop of  4 C 1s            1.99219
pop of  4 C 2s            1.18681
pop of  4 C 2px           0.92715
pop of  4 C 2py           0.96627
pop of  4 C 2pz           0.92515
pop of  5 C 1s            1.99051
pop of  5 C 2s            1.12196
pop of  5 C 2px           1.00730
pop of  5 C 2py           0.96309
pop of  5 C 2pz           1.01070
pop of  6 C 1s            1.99072
pop of  6 C 2s            1.06792
pop of  6 C 2px           1.06078
pop of  6 C 2py           1.06462
pop of  6 C 2pz           0.97038
pop of  7 C 1s            1.99091
pop of  7 C 2s            1.06007
pop of  7 C 2px           1.04335
pop of  7 C 2py           1.05612
pop of  7 C 2pz           0.99190
pop of  8 C 1s            1.99045
pop of  8 C 2s            1.03637
pop of  8 C 2px           1.02340
pop of  8 C 2py           0.97183
pop of  8 C 2pz           0.99873
pop of  9 C 1s            1.99061
pop of  9 C 2s            1.06676
pop of  9 C 2px           1.01249
pop of  9 C 2py           0.95003
pop of  9 C 2pz           0.97104
pop of  10 C 1s           1.99094
pop of  10 C 2s           1.14396
pop of  10 C 2px          1.00484
pop of  10 C 2py          0.94681
pop of  10 C 2pz          0.96266
pop of  11 C 1s           1.99137
pop of  11 C 2s           1.19595
pop of  11 C 2px          0.94113
pop of  11 C 2py          0.95690
pop of  11 C 2pz          0.95468
pop of  12 C 1s           1.99045
pop of  12 C 2s           1.09539
pop of  12 C 2px          0.98631
pop of  12 C 2py          0.97379
pop of  12 C 2pz          0.96868
pop of  13 C 1s           1.99064
pop of  13 C 2s           1.11463
pop of  13 C 2px          1.00935
pop of  13 C 2py          0.95890
pop of  13 C 2pz          0.94534
pop of  14 C 1s           1.99122
pop of  14 C 2s           1.17428
pop of  14 C 2px          0.99793
pop of  14 C 2py          0.93826
pop of  14 C 2pz          0.95329
pop of  15 C 1s           1.99137
pop of  15 C 2s           1.13588
pop of  15 C 2px          0.97503
pop of  15 C 2py          0.95975
pop of  15 C 2pz          0.97715
pop of  16 C 1s           1.99132
pop of  16 C 2s           1.20244
pop of  16 C 2px          0.94179
pop of  16 C 2py          0.91654
pop of  16 C 2pz          0.91726
pop of  17 C 1s           1.99051
pop of  17 C 2s           1.06516
pop of  17 C 2px          1.03024
pop of  17 C 2py          0.97894
pop of  17 C 2pz          0.97660
pop of  18 C 1s           1.99114
pop of  18 C 2s           1.15066
pop of  18 C 2px          1.02858
pop of  18 C 2py          0.94697
pop of  18 C 2pz          0.99715
pop of  19 C 1s           1.99103
pop of  19 C 2s           1.10885
pop of  19 C 2px          1.00358
pop of  19 C 2py          0.98036
pop of  19 C 2pz          1.01397
pop of  20 C 1s           1.99187
pop of  20 C 2s           1.22818
pop of  20 C 2px          0.95027
pop of  20 C 2py          0.93547
pop of  20 C 2pz          0.91564
pop of  21 C 1s           1.99163
pop of  21 C 2s           1.12838
pop of  21 C 2px          0.98879
pop of  21 C 2py          1.01356
pop of  21 C 2pz          0.93178
pop of  22 H 1s           0.96128
pop of  23 H 1s           0.92435
pop of  24 H 1s           1.00092
pop of  25 H 1s           0.89261
pop of  26 H 1s           0.87800
pop of  27 H 1s           0.88616
pop of  28 H 1s           0.92634
pop of  29 H 1s           0.94324
pop of  30 H 1s           0.94175
pop of  31 H 1s           0.93495
pop of  32 H 1s           0.89375
pop of  33 H 1s           0.90277
pop of  34 H 1s           0.97141
pop of  35 H 1s           0.92027
 ** Mulliken atomic charges  **
charge of    0C =     -0.05340
charge of    1C =      0.03132
charge of    2C =     -0.01166
charge of    3C =     -0.07333
charge of    4C =      0.00242
charge of    5C =     -0.09355
charge of    6C =     -0.15441
charge of    7C =     -0.14235
charge of    8C =     -0.02079
charge of    9C =      0.00908
charge of   10C =     -0.04922
charge of   11C =     -0.04003
charge of   12C =     -0.01462
charge of   13C =     -0.01885
charge of   14C =     -0.05498
charge of   15C =     -0.03918
charge of   16C =      0.03066
charge of   17C =     -0.04145
charge of   18C =     -0.11450
charge of   19C =     -0.09778
charge of   20C =     -0.02143
charge of   21C =     -0.05414
charge of   22H =      0.03872
charge of   23H =      0.07565
charge of   24H =     -0.00092
charge of   25H =      0.10739
charge of   26H =      0.12200
charge of   27H =      0.11384
charge of   28H =      0.07366
charge of   29H =      0.05676
charge of   30H =      0.05825
charge of   31H =      0.06505
charge of   32H =      0.10625
charge of   33H =      0.09723
charge of   34H =      0.02859
charge of   35H =      0.07973
Dipole moment(X, Y, Z, Debye):  0.12071, -1.74644,  0.01947
nelec by numeric integration = 145.99999755976017
    CPU time for vxc     37.58 sec, wall time     15.65 sec
E1 = -4139.449382512647  Ecoul = 1914.4585204165269  Exc = -124.80979853448697
nelec by numeric integration = 145.99999755976017
    CPU time for vxc     37.59 sec, wall time     15.60 sec
E1 = -4139.449382512647  Ecoul = 1914.458520416526  Exc = -124.80979853448697
