System: uname_result(system='Linux', node='cosmopc18', release='5.15.0-97-generic', version='#107-Ubuntu SMP Wed Feb 7 13:26:48 UTC 2024', machine='x86_64')  Threads 4
Python 3.11.8 (main, Feb 26 2024, 21:39:34) [GCC 11.2.0]
numpy 1.26.4  scipy 1.11.4
Date: Tue Apr  9 10:55:35 2024
PySCF version 2.3.0
PySCF path  /home/saade/miniconda3/envs/tutorial/lib/python3.11/site-packages/pyscf

[ENV] PYSCFAD_BACKEND torch
[CONFIG] conf_file None
[INPUT] verbose = 5
[INPUT] max_memory = 4000 
[INPUT] num. atoms = 36
[INPUT] num. electrons = 146
[INPUT] charge = 0
[INPUT] spin (= nelec alpha-beta = 2S) = 0
[INPUT] symmetry False subgroup None
[INPUT] Mole.unit = angstrom
[INPUT] Symbol           X                Y                Z      unit          X                Y                Z       unit  Magmom
[INPUT]  1 C      0.021391000000   3.661314000000   0.720201000000 AA    0.040423131531   6.918880716036   1.360982644638 Bohr   0.0
[INPUT]  2 C     -0.016730000000   3.541741000000  -0.714256000000 AA   -0.031615118064   6.692920494143  -1.349748222827 Bohr   0.0
[INPUT]  3 C     -0.073029000000   5.030973000000   1.452950000000 AA   -0.138004809151   9.507161110081   2.745677572687 Bohr   0.0
[INPUT]  4 C      0.049438000000   2.579391000000   1.321971000000 AA    0.093424280146   4.874342558168   2.498163134617 Bohr   0.0
[INPUT]  5 C      0.153983000000   4.685409000000  -1.361328000000 AA    0.290985697839   8.854139791572  -2.572537085702 Bohr   0.0
[INPUT]  6 C      0.104047000000   2.293751000000  -1.339664000000 AA    0.196620334083   4.334561187947  -2.531598058939 Bohr   0.0
[INPUT]  7 C     -0.067334000000   6.125278000000  -0.752027000000 AA   -0.127242818871  11.575097856824  -1.421125068278 Bohr   0.0
[INPUT]  8 C      0.121665000000   6.137269000000   0.550927000000 AA    0.229913528945  11.597757562783   1.041101144628 Bohr   0.0
[INPUT]  9 C      0.044634000000   1.161864000000   0.809875000000 AA    0.084346035844   2.195604753992   1.530441945132 Bohr   0.0
[INPUT] 10 C     -0.079034000000   1.129703000000  -0.660587000000 AA   -0.149352614529   2.134829272100  -1.248328511448 Bohr   0.0
[INPUT] 11 C     -0.023221000000  -0.217104000000   1.235305000000 AA   -0.043881330339  -0.410267100548   2.334388130306 Bohr   0.0
[INPUT] 12 C     -0.051922000000  -0.031169000000  -1.335224000000 AA   -0.098118359840  -0.058900873577  -2.523207674946 Bohr   0.0
[INPUT] 13 C     -0.035153000000  -0.985232000000   0.704079000000 AA   -0.066429542457  -1.861818649157   1.330516480058 Bohr   0.0
[INPUT] 14 C      0.011330000000  -1.272364000000  -0.708873000000 AA    0.021410596991  -2.404419490756  -1.339575827099 Bohr   0.0
[INPUT] 15 C     -0.067819000000  -2.480920000000   1.155748000000 AA   -0.128159336042  -4.688259336956   2.184047189014 Bohr   0.0
[INPUT] 16 C      0.020102000000  -2.453643000000  -1.442485000000 AA    0.037987274556  -4.636713277456  -2.725901588793 Bohr   0.0
[INPUT] 17 C      0.085048000000  -3.574582000000   0.839239000000 AA    0.160717427442  -6.754980989800   1.585931863054 Bohr   0.0
[INPUT] 18 C     -0.200528000000  -3.516491000000  -0.820531000000 AA   -0.378943000307  -6.645204909498  -1.550578866715 Bohr   0.0
[INPUT] 19 C      0.079965000000  -4.991834000000   1.420536000000 AA    0.151111949551  -9.433199119292   2.684423990085 Bohr   0.0
[INPUT] 20 C     -0.118255000000  -4.852164000000  -1.310352000000 AA   -0.223469562860  -9.169261071474  -2.476206406776 Bohr   0.0
[INPUT] 21 C      0.093542000000  -6.057235000000   0.782158000000 AA    0.176768761144 -11.446515222130   1.478064406138 Bohr   0.0
[INPUT] 22 C      0.110167000000  -6.080311000000  -0.583678000000 AA    0.208185457965 -11.490122542180  -1.102991564934 Bohr   0.0
[INPUT] 23 H      0.139852000000   5.014548000000   2.627441000000 AA    0.264281977973   9.476122358485   4.965143898453 Bohr   0.0
[INPUT] 24 H     -0.100664000000   2.456616000000   2.368863000000 AA   -0.190227390603   4.642331433225   4.476502296616 Bohr   0.0
[INPUT] 25 H     -0.021781000000   4.864558000000  -2.476591000000 AA   -0.041160124719   9.192682337062  -4.680078712563 Bohr   0.0
[INPUT] 26 H      0.077846000000   2.638302000000  -2.509296000000 AA    0.147107619893   4.985668213892  -4.741882205467 Bohr   0.0
[INPUT] 27 H     -0.055306000000   7.074237000000  -1.396849000000 AA   -0.104513193045  13.368370470265  -2.639662047373 Bohr   0.0
[INPUT] 28 H      0.013298000000   7.015815000000   1.218696000000 AA    0.025129578004  13.257968890615   2.303001669103 Bohr   0.0
[INPUT] 29 H      0.250424000000  -0.050577000000   2.411861000000 AA    0.473232775018  -0.095576678202   4.557756740520 Bohr   0.0
[INPUT] 30 H      0.041615000000  -0.109245000000  -2.398544000000 AA    0.078640952674  -0.206443130478  -4.532591257719 Bohr   0.0
[INPUT] 31 H      0.085112000000  -2.253380000000   2.501473000000 AA    0.160838369914  -4.258271054572   4.727098877994 Bohr   0.0
[INPUT] 32 H     -0.129792000000  -2.349829000000  -2.321792000000 AA   -0.245271333160  -4.440533249561  -4.387550998206 Bohr   0.0
[INPUT] 33 H     -0.102450000000  -4.903425000000   2.594741000000 AA   -0.193602441462  -9.266130322345   4.903349854180 Bohr   0.0
[INPUT] 34 H      0.234073000000  -4.953878000000  -2.372941000000 AA    0.442333863155  -9.361472674508  -4.484208599752 Bohr   0.0
[INPUT] 35 H     -0.086197000000  -7.030838000000   1.297167000000 AA   -0.162888722759 -13.286358246185   2.451290367824 Bohr   0.0
[INPUT] 36 H      0.038526000000  -6.984854000000  -1.262488000000 AA    0.072803588675 -13.199461080073  -2.385756555550 Bohr   0.0
[INPUT] ---------------- BASIS SET ---------------- 
[INPUT] l, kappa, [nprim/nctr], expnt,             c_1 c_2 ...
[INPUT] H
[INPUT] 0    0    [3    /1   ]  3.42525091        0.15432897
                                0.62391373        0.53532814
                                0.1688554         0.44463454
[INPUT] C
[INPUT] 0    0    [3    /1   ]  71.616837         0.15432897
                                13.045096         0.53532814
                                3.5305122         0.44463454
[INPUT] 0    0    [3    /1   ]  2.9412494         -0.09996723
                                0.6834831         0.39951283
                                0.2222899         0.70011547
[INPUT] 1    0    [3    /1   ]  2.9412494         0.15591627
                                0.6834831         0.60768372
                                0.2222899         0.39195739

nuclear repulsion = 1516.66764034555
number of shells = 80
number of NR pGTOs = 372
number of NR cGTOs = 124
basis = sto3g
ecp = {}
CPU time:     10791.53
atom C rad-grids = 99, ang-grids = [ 50  50  50  50  50  50  50  50  50  50  50  50  50  50  50  50  50  50
  50  50  50  50  50  50  50  50  50  50  50  50  50  86  86  86  86  86
  86  86  86  86  86  86  86 434 434 434 434 434 434 434 434 434 590 590
 590 590 590 590 590 590 590 590 590 590 590 590 590 590 590 590 590 590
 590 590 590 590 590 590 590 434 434 434 434 434 434 434 434 434 434 434
 434 434 434 434 434 434 434 434 434]
atom H rad-grids = 99, ang-grids = [ 50  50  50  50  50  50  50  50  50  50  50  50  50  50  50  50  50  50
  50  50  50  50  50  50  50  50  50  50  86  86  86  86  86  86  86 434
 434 434 434 434 434 434 434 590 590 590 590 590 590 590 590 590 590 590
 590 590 590 590 590 590 590 590 590 590 590 590 590 590 590 434 434 434
 434 434 434 434 434 434 434 434 434 434 434 434 434 434 434 434 434 434
 434 434 434 434 434 434 434 434 434]
tot_boxes 5270, boxes in each direction [ 8 29 15]
Padding 0 grids
tot grids = 1157832


******** <class 'pyscf.dft.rks.RKS'> ********
method = RKS
initial guess = minao
damping factor = 0
level_shift factor = 0
DIIS = <class 'pyscf.scf.diis.CDIIS'>
diis_start_cycle = 1
diis_space = 8
SCF conv_tol = 1e-10
SCF conv_tol_grad = None
SCF max_cycles = 50
direct_scf = True
direct_scf_tol = 1e-13
chkfile to save SCF result = /home/saade/mlelec/tutorials/tmphibjamcf
max_memory 4000 MB (current use 636 MB)
XC library pyscf.dft.libxc version 6.1.0
    S. Lehtola, C. Steigemann, M. J.T. Oliveira, and M. A.L. Marques.,  SoftwareX 7, 1–5 (2018)
XC functionals = b3lypg
    P. J. Stephens, F. J. Devlin, C. F. Chabalowski, and M. J. Frisch.,  J. Phys. Chem. 98, 11623 (1994)
radial grids: 
    Treutler-Ahlrichs [JCP 102, 346 (1995); DOI:10.1063/1.469408] (M4) radial grids
    
becke partition: Becke, JCP 88, 2547 (1988); DOI:10.1063/1.454033
pruning grids: <function nwchem_prune at 0x7f9db5616ca0>
grids dens level: 3
symmetrized grids: False
atomic radii adjust function: <function treutler_atomic_radii_adjust at 0x7f9db5617380>
User specified grid scheme (99, 590)
small_rho_cutoff = 1e-07
Set gradient conv threshold to 1e-05
Initial guess from minao.
nelec by numeric integration = 145.27520467134124
    CPU time for vxc     36.57 sec, wall time     15.35 sec
E1 = -4132.155451827665  Ecoul = 1899.7492220207391  Exc = -126.33862401746663
init E= -842.077213478847
cond(S) = 69.97993918593725
    CPU time for initialize scf     46.56 sec, wall time     17.75 sec
  HOMO = -0.211901047303771  LUMO = -0.143437487926082
  mo_energy =
[-1.02786691e+01 -1.02519996e+01 -1.01472119e+01 -1.01268972e+01
 -1.01228496e+01 -1.01184794e+01 -1.01168351e+01 -1.01142552e+01
 -1.01133977e+01 -1.01129042e+01 -1.01119306e+01 -1.01088469e+01
 -1.01066221e+01 -1.00975894e+01 -1.00975613e+01 -1.00918189e+01
 -1.00888648e+01 -1.00848893e+01 -1.00824179e+01 -1.00820858e+01
 -1.00784645e+01 -1.00667749e+01 -1.16817158e+00 -1.07493623e+00
 -1.05947017e+00 -1.00489323e+00 -9.87237493e-01 -9.50842035e-01
 -9.39720154e-01 -9.10120622e-01 -8.82393207e-01 -8.33034054e-01
 -8.02883837e-01 -7.69669084e-01 -7.41085963e-01 -7.17655783e-01
 -6.97680270e-01 -6.76729271e-01 -6.47825610e-01 -6.39454128e-01
 -6.12275790e-01 -5.97226502e-01 -5.76725999e-01 -5.57098629e-01
 -5.54626423e-01 -5.47261394e-01 -5.36512340e-01 -5.12058413e-01
 -5.04021686e-01 -4.93528797e-01 -4.84206770e-01 -4.71994804e-01
 -4.57473380e-01 -4.52324882e-01 -4.48743403e-01 -4.30393429e-01
 -4.27805455e-01 -4.20471518e-01 -4.04951673e-01 -3.98341787e-01
 -3.87524556e-01 -3.85496613e-01 -3.75593037e-01 -3.72695870e-01
 -3.54517950e-01 -3.41323042e-01 -3.25163830e-01 -3.16495739e-01
 -3.12153124e-01 -2.85474727e-01 -2.66351499e-01 -2.34396479e-01
 -2.11901047e-01 -1.43437488e-01 -1.19689699e-01 -6.91704467e-02
 -3.37935771e-02 -8.81631878e-03  2.74950713e-03  2.30297603e-02
  3.14821868e-02  5.06907568e-02  7.66716558e-02  1.12847600e-01
  1.38148992e-01  1.57022188e-01  1.70642718e-01  1.74234434e-01
  1.85351943e-01  1.87417163e-01  1.98445639e-01  2.13764967e-01
  2.43625470e-01  2.54735820e-01  2.62678104e-01  2.76895220e-01
  2.78728791e-01  3.10017971e-01  3.15783522e-01  3.25579071e-01
  3.41414099e-01  3.52707214e-01  3.63050591e-01  3.72866770e-01
  3.76034846e-01  3.96311298e-01  4.05440193e-01  4.51869901e-01
  4.68223000e-01  4.85477462e-01  5.08448651e-01  5.25585093e-01
  5.69057430e-01  5.82328440e-01  6.02383317e-01  6.22634394e-01
  6.33455267e-01  6.57036731e-01  7.23948606e-01  7.31514220e-01
  7.40937821e-01  7.57614894e-01  9.28028165e-01  1.42123500e+00]
nelec by numeric integration = 146.0000090347209
    CPU time for vxc     37.74 sec, wall time     15.55 sec
E1 = -4147.7264190667565  Ecoul = 1920.7752667503835  Exc = -124.98521918433852
cycle= 1 E= -835.268731155166  delta_E= 6.81  |g|= 0.333  |ddm|=  9.4
    CPU time for cycle= 1     38.18 sec, wall time     15.63 sec
  HOMO = -0.0979613606290941  LUMO = 0.00929277054089489
  mo_energy =
[-1.00430828e+01 -1.00381536e+01 -1.00381404e+01 -1.00237744e+01
 -1.00168348e+01 -1.00144336e+01 -1.00129659e+01 -1.00017159e+01
 -9.99167976e+00 -9.98650871e+00 -9.98439117e+00 -9.97926854e+00
 -9.96586799e+00 -9.96508446e+00 -9.96019071e+00 -9.95876091e+00
 -9.95816689e+00 -9.95526608e+00 -9.95042465e+00 -9.93876196e+00
 -9.93525062e+00 -9.93109645e+00 -8.33532286e-01 -8.19589461e-01
 -8.05121096e-01 -7.75963419e-01 -7.52250693e-01 -7.34520858e-01
 -7.17982023e-01 -6.99916218e-01 -6.85440186e-01 -6.57077095e-01
 -6.35374923e-01 -6.07190676e-01 -5.81320401e-01 -5.52019986e-01
 -5.36917488e-01 -5.31431260e-01 -5.08129929e-01 -5.00429844e-01
 -4.74033363e-01 -4.71551325e-01 -4.61545629e-01 -4.41617424e-01
 -4.30704915e-01 -4.20490047e-01 -4.00355904e-01 -3.88168924e-01
 -3.78762036e-01 -3.73729572e-01 -3.64894505e-01 -3.54030348e-01
 -3.51213110e-01 -3.44694683e-01 -3.34820558e-01 -3.26675466e-01
 -3.17297405e-01 -3.11539530e-01 -3.01490185e-01 -2.98606850e-01
 -2.87747539e-01 -2.76330372e-01 -2.66701496e-01 -2.58913698e-01
 -2.34426604e-01 -2.26517605e-01 -2.20851766e-01 -1.96819210e-01
 -1.95434645e-01 -1.63085725e-01 -1.40920987e-01 -1.25686087e-01
 -9.79613606e-02  9.29277054e-03  2.23643366e-02  8.92992289e-02
  1.29968613e-01  1.50380070e-01  1.70287450e-01  1.83250020e-01
  1.99220906e-01  2.32376710e-01  2.46185482e-01  2.70636738e-01
  2.77555431e-01  2.83475651e-01  3.04757496e-01  3.15210522e-01
  3.26469048e-01  3.35113420e-01  3.41822072e-01  3.75667756e-01
  3.87942863e-01  4.21447083e-01  4.27127912e-01  4.29462367e-01
  4.38166954e-01  4.47583926e-01  4.59480621e-01  4.71996611e-01
  4.86345884e-01  4.93627362e-01  5.06485770e-01  5.37738985e-01
  5.45354867e-01  5.71404762e-01  5.89165614e-01  6.03355439e-01
  6.26558441e-01  6.48656943e-01  6.84709094e-01  7.05538966e-01
  7.32069352e-01  7.39586974e-01  7.65208600e-01  7.90958581e-01
  8.06092782e-01  8.33442762e-01  8.60693176e-01  9.22118026e-01
  9.29733430e-01  9.41676523e-01  1.11711610e+00  1.70585372e+00]
nelec by numeric integration = 146.00000908529205
    CPU time for vxc     37.90 sec, wall time     15.64 sec
E1 = -4140.049519501212  Ecoul = 1912.957639246465  Exc = -124.81988454473414
cycle= 2 E= -835.244124453935  delta_E= 0.0246  |g|= 0.428  |ddm|= 1.22
    CPU time for cycle= 2     38.40 sec, wall time     15.72 sec
  HOMO = -0.115102438298597  LUMO = -0.00988029464238567
  mo_energy =
[-1.00761189e+01 -1.00470693e+01 -1.00319147e+01 -1.00312524e+01
 -1.00301919e+01 -1.00294755e+01 -1.00271937e+01 -1.00232618e+01
 -1.00167042e+01 -1.00149892e+01 -1.00133579e+01 -1.00114158e+01
 -1.00099033e+01 -1.00087949e+01 -1.00057241e+01 -1.00056468e+01
 -1.00042522e+01 -9.99207057e+00 -9.99030410e+00 -9.98536351e+00
 -9.98074604e+00 -9.96135884e+00 -8.90506567e-01 -8.41233322e-01
 -8.26387974e-01 -7.90635298e-01 -7.81199733e-01 -7.51794343e-01
 -7.45525296e-01 -7.27224267e-01 -7.08083486e-01 -6.68870002e-01
 -6.48208260e-01 -6.22410801e-01 -5.96796570e-01 -5.80844802e-01
 -5.68896512e-01 -5.51425806e-01 -5.25146066e-01 -5.13903738e-01
 -4.95943001e-01 -4.81483154e-01 -4.72854473e-01 -4.54774333e-01
 -4.44172633e-01 -4.32181246e-01 -4.21617491e-01 -4.12166654e-01
 -4.05547984e-01 -4.02233156e-01 -3.87336969e-01 -3.75897645e-01
 -3.64643174e-01 -3.55234333e-01 -3.53262490e-01 -3.46228389e-01
 -3.36843051e-01 -3.25146840e-01 -3.15813740e-01 -3.06196702e-01
 -3.01453435e-01 -2.95912491e-01 -2.90494932e-01 -2.75786445e-01
 -2.50201174e-01 -2.41480302e-01 -2.39375381e-01 -2.25089896e-01
 -2.20494086e-01 -1.88585723e-01 -1.69349563e-01 -1.35401146e-01
 -1.15102438e-01 -9.88029464e-03  1.42832777e-02  6.54576212e-02
  1.07352701e-01  1.37516440e-01  1.47102734e-01  1.72386219e-01
  1.75295873e-01  1.97389501e-01  2.25879134e-01  2.60567704e-01
  2.73492760e-01  2.83705781e-01  2.95841347e-01  3.10683898e-01
  3.14243039e-01  3.23244971e-01  3.31768148e-01  3.71493143e-01
  3.86810889e-01  3.90992488e-01  4.01506388e-01  4.09150514e-01
  4.21043774e-01  4.40675573e-01  4.49157585e-01  4.60803530e-01
  4.74687725e-01  4.90931454e-01  5.00665014e-01  5.06454984e-01
  5.21512607e-01  5.29968878e-01  5.50686111e-01  5.93768736e-01
  6.10258991e-01  6.28403540e-01  6.47922784e-01  6.69626862e-01
  7.12502432e-01  7.24189414e-01  7.43489752e-01  7.62537744e-01
  7.71406103e-01  7.97280622e-01  8.74456696e-01  8.78606110e-01
  8.86973094e-01  9.10762103e-01  1.09114810e+00  1.61939736e+00]
nelec by numeric integration = 146.00000906213612
    CPU time for vxc     37.51 sec, wall time     15.62 sec
E1 = -4144.11260853432  Ecoul = 1917.0119384887546  Exc = -124.86095196375572
cycle= 3 E= -835.293981663776  delta_E= -0.0499  |g|= 0.229  |ddm|= 1.01
    CPU time for cycle= 3     38.01 sec, wall time     15.71 sec
  HOMO = -0.118256386993553  LUMO = -0.0119019880939773
  mo_energy =
[-1.00944157e+01 -1.00689228e+01 -1.00276656e+01 -1.00258692e+01
 -1.00244471e+01 -1.00243492e+01 -1.00226094e+01 -1.00195666e+01
 -1.00185135e+01 -1.00180914e+01 -1.00171400e+01 -1.00165239e+01
 -1.00156809e+01 -1.00154410e+01 -1.00115498e+01 -1.00115184e+01
 -1.00109064e+01 -1.00083333e+01 -1.00026597e+01 -1.00006066e+01
 -9.99987253e+00 -9.99695845e+00 -8.95119970e-01 -8.41529417e-01
 -8.32030847e-01 -7.97953240e-01 -7.82960138e-01 -7.60743601e-01
 -7.48601931e-01 -7.28979963e-01 -7.09330382e-01 -6.73293083e-01
 -6.49237990e-01 -6.27056193e-01 -6.06081674e-01 -5.82138676e-01
 -5.68714933e-01 -5.53389761e-01 -5.25372484e-01 -5.18992468e-01
 -4.98400026e-01 -4.87314125e-01 -4.75417859e-01 -4.57255108e-01
 -4.48934660e-01 -4.38623059e-01 -4.26895641e-01 -4.17713886e-01
 -4.07331716e-01 -4.03339504e-01 -3.87930418e-01 -3.77582595e-01
 -3.65122977e-01 -3.60216024e-01 -3.56460333e-01 -3.48569583e-01
 -3.35059193e-01 -3.30754485e-01 -3.20746225e-01 -3.10833119e-01
 -3.07114153e-01 -2.98109108e-01 -2.92747045e-01 -2.80855339e-01
 -2.55504926e-01 -2.50218953e-01 -2.44288071e-01 -2.26498042e-01
 -2.22915588e-01 -1.89281294e-01 -1.73490695e-01 -1.40969012e-01
 -1.18256387e-01 -1.19019881e-02  7.55310598e-03  6.50899070e-02
  1.05835948e-01  1.30357632e-01  1.41715238e-01  1.65308151e-01
  1.69807671e-01  1.95795936e-01  2.20426583e-01  2.53788969e-01
  2.74958218e-01  2.85697740e-01  2.91599867e-01  3.02421389e-01
  3.11414459e-01  3.22249025e-01  3.23770982e-01  3.64157133e-01
  3.80982366e-01  3.95062643e-01  3.99691355e-01  4.12431897e-01
  4.14722653e-01  4.30093197e-01  4.45818563e-01  4.57670007e-01
  4.70647013e-01  4.85951530e-01  4.95308694e-01  5.00121284e-01
  5.16416080e-01  5.37403858e-01  5.53516139e-01  5.87438160e-01
  6.11806091e-01  6.16162502e-01  6.51124434e-01  6.69788685e-01
  7.11059493e-01  7.24395609e-01  7.33944371e-01  7.61865364e-01
  7.73502542e-01  7.97205272e-01  8.64576262e-01  8.76626665e-01
  8.86174418e-01  9.01060831e-01  1.08013405e+00  1.60614654e+00]
nelec by numeric integration = 146.00000905379082
    CPU time for vxc     37.94 sec, wall time     15.62 sec
E1 = -4143.748407380493  Ecoul = 1916.6419716892547  Exc = -124.87423045770691
cycle= 4 E= -835.313025803399  delta_E= -0.019  |g|= 0.0699  |ddm|= 0.477
    CPU time for cycle= 4     38.44 sec, wall time     15.69 sec
  HOMO = -0.119700886165181  LUMO = -0.0135533652953757
  mo_energy =
[-1.00877857e+01 -1.00635741e+01 -1.00329802e+01 -1.00298604e+01
 -1.00280292e+01 -1.00248183e+01 -1.00238819e+01 -1.00227787e+01
 -1.00218532e+01 -1.00192355e+01 -1.00189203e+01 -1.00187075e+01
 -1.00147622e+01 -1.00135450e+01 -1.00126124e+01 -1.00110578e+01
 -1.00101376e+01 -1.00094454e+01 -1.00082622e+01 -1.00043323e+01
 -1.00033621e+01 -1.00011836e+01 -8.92872839e-01 -8.42787046e-01
 -8.33013992e-01 -7.99945475e-01 -7.83231707e-01 -7.60191029e-01
 -7.49125907e-01 -7.30193032e-01 -7.10198350e-01 -6.75043146e-01
 -6.50181002e-01 -6.28554491e-01 -6.05682724e-01 -5.81318066e-01
 -5.69673027e-01 -5.53768466e-01 -5.26677033e-01 -5.19107134e-01
 -4.98779344e-01 -4.87945309e-01 -4.77305846e-01 -4.57060766e-01
 -4.48970746e-01 -4.39475041e-01 -4.26220573e-01 -4.16682288e-01
 -4.08111606e-01 -4.03553560e-01 -3.88725576e-01 -3.78700616e-01
 -3.64647297e-01 -3.62389375e-01 -3.56769475e-01 -3.49042141e-01
 -3.37464652e-01 -3.32623164e-01 -3.21754661e-01 -3.11091565e-01
 -3.09267118e-01 -2.98882226e-01 -2.93686881e-01 -2.82457893e-01
 -2.56714811e-01 -2.50192615e-01 -2.44543199e-01 -2.27555035e-01
 -2.24264727e-01 -1.90339720e-01 -1.73836273e-01 -1.42926847e-01
 -1.19700886e-01 -1.35533653e-02  6.23492372e-03  6.37794106e-02
  1.04881706e-01  1.30037929e-01  1.41239538e-01  1.64235117e-01
  1.69462295e-01  1.95725096e-01  2.19952821e-01  2.52073545e-01
  2.74047759e-01  2.82873284e-01  2.88964410e-01  3.05021009e-01
  3.10976064e-01  3.19096567e-01  3.23547884e-01  3.65631625e-01
  3.82090347e-01  3.93182290e-01  3.97768121e-01  4.10520101e-01
  4.15582885e-01  4.31763812e-01  4.43874192e-01  4.56635202e-01
  4.70697936e-01  4.84307352e-01  4.97275417e-01  4.99798940e-01
  5.15185046e-01  5.36016046e-01  5.51960657e-01  5.86987792e-01
  6.11076181e-01  6.17621575e-01  6.48948018e-01  6.69021140e-01
  7.10638039e-01  7.23453463e-01  7.30070682e-01  7.61131569e-01
  7.72929989e-01  7.94658555e-01  8.59951107e-01  8.77007930e-01
  8.86228221e-01  9.02454129e-01  1.08048850e+00  1.61016586e+00]
nelec by numeric integration = 146.00000906869633
    CPU time for vxc     38.25 sec, wall time     15.87 sec
E1 = -4143.865783287825  Ecoul = 1916.7586840858557  Exc = -124.87501771569407
cycle= 5 E= -835.314476572118  delta_E= -0.00145  |g|= 0.0326  |ddm|= 0.144
    CPU time for cycle= 5     38.82 sec, wall time     15.96 sec
  HOMO = -0.119702401780885  LUMO = -0.0131304748899964
  mo_energy =
[-1.00848893e+01 -1.00597605e+01 -1.00286340e+01 -1.00256789e+01
 -1.00248926e+01 -1.00244182e+01 -1.00230943e+01 -1.00229753e+01
 -1.00227138e+01 -1.00221842e+01 -1.00191897e+01 -1.00186355e+01
 -1.00127617e+01 -1.00123190e+01 -1.00116735e+01 -1.00109869e+01
 -1.00100317e+01 -1.00082214e+01 -1.00074430e+01 -1.00067568e+01
 -1.00051801e+01 -1.00047223e+01 -8.92103687e-01 -8.42344131e-01
 -8.32133059e-01 -7.98677764e-01 -7.82895768e-01 -7.59960256e-01
 -7.48946509e-01 -7.29802335e-01 -7.10463412e-01 -6.74272609e-01
 -6.49661601e-01 -6.27831669e-01 -6.05185284e-01 -5.81594107e-01
 -5.69828379e-01 -5.53311011e-01 -5.26435567e-01 -5.18500959e-01
 -4.98590133e-01 -4.87079859e-01 -4.76724023e-01 -4.57090380e-01
 -4.48264333e-01 -4.38743371e-01 -4.25649088e-01 -4.16075216e-01
 -4.08162610e-01 -4.03481276e-01 -3.88642131e-01 -3.78429058e-01
 -3.64697862e-01 -3.61505168e-01 -3.56523846e-01 -3.48713386e-01
 -3.36942332e-01 -3.31931748e-01 -3.21438180e-01 -3.10823240e-01
 -3.08338715e-01 -2.98873660e-01 -2.93547134e-01 -2.81759560e-01
 -2.56175564e-01 -2.49814993e-01 -2.44474723e-01 -2.27283019e-01
 -2.23990571e-01 -1.90588195e-01 -1.74138927e-01 -1.42568233e-01
 -1.19702402e-01 -1.31304749e-02  6.78748780e-03  6.35835776e-02
  1.05289704e-01  1.30867112e-01  1.41511210e-01  1.65050956e-01
  1.69336411e-01  1.95510077e-01  2.20146741e-01  2.53128188e-01
  2.74522319e-01  2.83845342e-01  2.90541052e-01  3.04723327e-01
  3.11473933e-01  3.19840697e-01  3.23929896e-01  3.65896828e-01
  3.82535276e-01  3.94055956e-01  3.97871495e-01  4.11366165e-01
  4.16039919e-01  4.31571890e-01  4.44644407e-01  4.57079495e-01
  4.71250856e-01  4.85043180e-01  4.97202021e-01  4.99769596e-01
  5.16086593e-01  5.35672162e-01  5.52224230e-01  5.87160354e-01
  6.11010069e-01  6.17148813e-01  6.49571053e-01  6.68595290e-01
  7.10999592e-01  7.24039466e-01  7.32485636e-01  7.60282238e-01
  7.72384407e-01  7.95046393e-01  8.63116315e-01  8.76911949e-01
  8.84287141e-01  9.03092789e-01  1.08115338e+00  1.61226019e+00]
nelec by numeric integration = 146.0000090651355
    CPU time for vxc     37.89 sec, wall time     15.66 sec
E1 = -4143.846971482659  Ecoul = 1916.7378499708732  Exc = -124.87332342977359
cycle= 6 E= -835.314804596014  delta_E= -0.000328  |g|= 0.0106  |ddm|= 0.0579
    CPU time for cycle= 6     38.38 sec, wall time     15.74 sec
  HOMO = -0.119316903056001  LUMO = -0.0126258593161044
  mo_energy =
[-1.00854008e+01 -1.00601779e+01 -1.00288254e+01 -1.00257358e+01
 -1.00240573e+01 -1.00236851e+01 -1.00234980e+01 -1.00223189e+01
 -1.00221269e+01 -1.00204528e+01 -1.00195954e+01 -1.00167108e+01
 -1.00127451e+01 -1.00126847e+01 -1.00113457e+01 -1.00102705e+01
 -1.00101215e+01 -1.00076564e+01 -1.00063838e+01 -1.00062626e+01
 -1.00043930e+01 -1.00021243e+01 -8.92089886e-01 -8.41940715e-01
 -8.31707923e-01 -7.98332316e-01 -7.82707844e-01 -7.59638497e-01
 -7.48600512e-01 -7.29496459e-01 -7.09830692e-01 -6.73853519e-01
 -6.49351697e-01 -6.27508031e-01 -6.04905322e-01 -5.81297534e-01
 -5.69351361e-01 -5.53242988e-01 -5.26052244e-01 -5.18333620e-01
 -4.98216211e-01 -4.86890358e-01 -4.76320260e-01 -4.56834433e-01
 -4.48208343e-01 -4.38477167e-01 -4.25506290e-01 -4.15972943e-01
 -4.07723737e-01 -4.03286640e-01 -3.88280450e-01 -3.78224537e-01
 -3.64420564e-01 -3.61027470e-01 -3.56381550e-01 -3.48545561e-01
 -3.36788221e-01 -3.31388166e-01 -3.21125126e-01 -3.10643266e-01
 -3.08034981e-01 -2.98512115e-01 -2.93238107e-01 -2.81478539e-01
 -2.55867571e-01 -2.49600608e-01 -2.44211660e-01 -2.27074160e-01
 -2.23686041e-01 -1.90078299e-01 -1.73790938e-01 -1.42129422e-01
 -1.19316903e-01 -1.26258593e-02  7.28850117e-03  6.41226265e-02
  1.05576240e-01  1.31074993e-01  1.41900230e-01  1.65317670e-01
  1.69872477e-01  1.95882918e-01  2.20323807e-01  2.53519119e-01
  2.74778115e-01  2.84056867e-01  2.90481184e-01  3.05007218e-01
  3.11704235e-01  3.20185254e-01  3.24190435e-01  3.66070973e-01
  3.82660284e-01  3.94310309e-01  3.98232906e-01  4.11477004e-01
  4.16100281e-01  4.31868357e-01  4.45131065e-01  4.57418103e-01
  4.71376035e-01  4.85463599e-01  4.97372442e-01  5.00185941e-01
  5.16345548e-01  5.35907322e-01  5.52539246e-01  5.87698311e-01
  6.11346905e-01  6.17776356e-01  6.49800589e-01  6.69174149e-01
  7.11165855e-01  7.24271245e-01  7.32538476e-01  7.61269131e-01
  7.72999695e-01  7.95420763e-01  8.63144831e-01  8.77174099e-01
  8.85722772e-01  9.02998158e-01  1.08133240e+00  1.61197978e+00]
nelec by numeric integration = 146.00000906172187
    CPU time for vxc     38.15 sec, wall time     15.72 sec
E1 = -4143.816710509259  Ecoul = 1916.7067418518427  Exc = -124.87251405566053
cycle= 7 E= -835.314842367532  delta_E= -3.78e-05  |g|= 0.00278  |ddm|= 0.0178
    CPU time for cycle= 7     38.64 sec, wall time     15.80 sec
  HOMO = -0.119237983508731  LUMO = -0.0125065463688713
  mo_energy =
[-1.00855839e+01 -1.00604518e+01 -1.00286890e+01 -1.00256974e+01
 -1.00242978e+01 -1.00233540e+01 -1.00230960e+01 -1.00221338e+01
 -1.00218805e+01 -1.00208833e+01 -1.00193352e+01 -1.00164430e+01
 -1.00123105e+01 -1.00122649e+01 -1.00113459e+01 -1.00101411e+01
 -1.00100065e+01 -1.00076519e+01 -1.00061813e+01 -1.00060815e+01
 -1.00038933e+01 -1.00026461e+01 -8.92023097e-01 -8.41852963e-01
 -8.31693601e-01 -7.98263537e-01 -7.82571757e-01 -7.59550195e-01
 -7.48515712e-01 -7.29410361e-01 -7.09781329e-01 -6.73810934e-01
 -6.49263006e-01 -6.27443117e-01 -6.04863135e-01 -5.81177916e-01
 -5.69258566e-01 -5.53144660e-01 -5.25990546e-01 -5.18281121e-01
 -4.98176450e-01 -4.86877957e-01 -4.76299847e-01 -4.56758666e-01
 -4.48148480e-01 -4.38429255e-01 -4.25474651e-01 -4.15942038e-01
 -4.07670653e-01 -4.03160689e-01 -3.88216826e-01 -3.78118995e-01
 -3.64342603e-01 -3.61092567e-01 -3.56278775e-01 -3.48456531e-01
 -3.36682742e-01 -3.31422675e-01 -3.21058779e-01 -3.10572399e-01
 -3.08030307e-01 -2.98404083e-01 -2.93164255e-01 -2.81398056e-01
 -2.55808629e-01 -2.49518434e-01 -2.44127486e-01 -2.26978479e-01
 -2.23583881e-01 -1.89988549e-01 -1.73692133e-01 -1.42080181e-01
 -1.19237984e-01 -1.25065464e-02  7.37798710e-03  6.42049386e-02
  1.05673269e-01  1.31142083e-01  1.41961474e-01  1.65401364e-01
  1.69932098e-01  1.96002348e-01  2.20475226e-01  2.53520082e-01
  2.74838614e-01  2.84105440e-01  2.90502709e-01  3.05017134e-01
  3.11780807e-01  3.20232230e-01  3.24273783e-01  3.66135223e-01
  3.82728115e-01  3.94299629e-01  3.98335386e-01  4.11549269e-01
  4.16209172e-01  4.31903733e-01  4.45089868e-01  4.57376275e-01
  4.71427370e-01  4.85458342e-01  4.97381357e-01  5.00245445e-01
  5.16404121e-01  5.36121829e-01  5.52690177e-01  5.87723533e-01
  6.11490888e-01  6.17831972e-01  6.49939931e-01  6.69305080e-01
  7.11309978e-01  7.24386398e-01  7.32612970e-01  7.61286755e-01
  7.73100995e-01  7.95548791e-01  8.63186464e-01  8.77339249e-01
  8.85744168e-01  9.03131045e-01  1.08143186e+00  1.61189887e+00]
nelec by numeric integration = 146.00000906262696
    CPU time for vxc     38.61 sec, wall time     15.81 sec
E1 = -4143.81071925693  Ecoul = 1916.70064764617  Exc = -124.87241356721329
cycle= 8 E= -835.314844832428  delta_E= -2.46e-06  |g|= 0.000567  |ddm|= 0.00422
    CPU time for cycle= 8     39.07 sec, wall time     15.88 sec
  HOMO = -0.119282557539786  LUMO = -0.0125291029276538
  mo_energy =
[-1.00855897e+01 -1.00604569e+01 -1.00287267e+01 -1.00257162e+01
 -1.00242783e+01 -1.00232893e+01 -1.00231915e+01 -1.00221220e+01
 -1.00219246e+01 -1.00208102e+01 -1.00193245e+01 -1.00166292e+01
 -1.00123286e+01 -1.00122431e+01 -1.00113805e+01 -1.00102124e+01
 -1.00100227e+01 -1.00076004e+01 -1.00062822e+01 -1.00061629e+01
 -1.00040138e+01 -1.00025487e+01 -8.92044597e-01 -8.41863300e-01
 -8.31700889e-01 -7.98298232e-01 -7.82593962e-01 -7.59552783e-01
 -7.48517495e-01 -7.29425038e-01 -7.09796655e-01 -6.73823018e-01
 -6.49286585e-01 -6.27461117e-01 -6.04874953e-01 -5.81210435e-01
 -5.69289999e-01 -5.53144283e-01 -5.26007960e-01 -5.18281679e-01
 -4.98193150e-01 -4.86883788e-01 -4.76314674e-01 -4.56779746e-01
 -4.48154467e-01 -4.38438920e-01 -4.25487577e-01 -4.15952501e-01
 -4.07697022e-01 -4.03176148e-01 -3.88228079e-01 -3.78142774e-01
 -3.64369502e-01 -3.61081646e-01 -3.56290810e-01 -3.48475196e-01
 -3.36702103e-01 -3.31425117e-01 -3.21057700e-01 -3.10576202e-01
 -3.08031181e-01 -2.98431279e-01 -2.93181985e-01 -2.81418302e-01
 -2.55798062e-01 -2.49516363e-01 -2.44139340e-01 -2.26972439e-01
 -2.23600881e-01 -1.90000470e-01 -1.73664797e-01 -1.42103162e-01
 -1.19282558e-01 -1.25291029e-02  7.36587798e-03  6.41888828e-02
  1.05658807e-01  1.31146366e-01  1.41964439e-01  1.65402239e-01
  1.69921100e-01  1.95985890e-01  2.20496165e-01  2.53520299e-01
  2.74828060e-01  2.84084137e-01  2.90490372e-01  3.05000461e-01
  3.11772342e-01  3.20210458e-01  3.24285861e-01  3.66123294e-01
  3.82716989e-01  3.94295573e-01  3.98306524e-01  4.11541410e-01
  4.16210412e-01  4.31885823e-01  4.45090306e-01  4.57373387e-01
  4.71432455e-01  4.85442613e-01  4.97386819e-01  5.00228534e-01
  5.16410358e-01  5.36079758e-01  5.52656179e-01  5.87718339e-01
  6.11465615e-01  6.17811769e-01  6.49910213e-01  6.69263393e-01
  7.11299424e-01  7.24363511e-01  7.32595375e-01  7.61251217e-01
  7.73063618e-01  7.95517273e-01  8.63172755e-01  8.77300002e-01
  8.85693520e-01  9.03153222e-01  1.08144978e+00  1.61189629e+00]
nelec by numeric integration = 146.0000090627837
    CPU time for vxc     37.93 sec, wall time     15.65 sec
E1 = -4143.812711045031  Ecoul = 1916.7027015775855  Exc = -124.87247581405418
cycle= 9 E= -835.314844935955  delta_E= -1.04e-07  |g|= 0.000271  |ddm|= 0.00116
    CPU time for cycle= 9     38.55 sec, wall time     15.74 sec
  HOMO = -0.11928794747175  LUMO = -0.0125284682469879
  mo_energy =
[-1.00855791e+01 -1.00604448e+01 -1.00287289e+01 -1.00257148e+01
 -1.00242660e+01 -1.00233356e+01 -1.00231928e+01 -1.00221571e+01
 -1.00219594e+01 -1.00208358e+01 -1.00193338e+01 -1.00165976e+01
 -1.00123451e+01 -1.00122758e+01 -1.00113987e+01 -1.00101908e+01
 -1.00100577e+01 -1.00076342e+01 -1.00062721e+01 -1.00061731e+01
 -1.00040017e+01 -1.00025969e+01 -8.92044949e-01 -8.41877846e-01
 -8.31711265e-01 -7.98298764e-01 -7.82598393e-01 -7.59566725e-01
 -7.48529057e-01 -7.29434751e-01 -7.09807289e-01 -6.73831378e-01
 -6.49291058e-01 -6.27468977e-01 -6.04884765e-01 -5.81210908e-01
 -5.69290674e-01 -5.53158929e-01 -5.26012317e-01 -5.18289487e-01
 -4.98195537e-01 -4.86890143e-01 -4.76319996e-01 -4.56784926e-01
 -4.48163484e-01 -4.38443417e-01 -4.25490427e-01 -4.15955995e-01
 -4.07700991e-01 -4.03185136e-01 -3.88231820e-01 -3.78143319e-01
 -3.64368881e-01 -3.61089429e-01 -3.56300677e-01 -3.48480883e-01
 -3.36705620e-01 -3.31431185e-01 -3.21066754e-01 -3.10589132e-01
 -3.08038139e-01 -2.98433159e-01 -2.93188807e-01 -2.81423477e-01
 -2.55806708e-01 -2.49535084e-01 -2.44147992e-01 -2.26982072e-01
 -2.23610835e-01 -1.90010112e-01 -1.73674426e-01 -1.42114908e-01
 -1.19287947e-01 -1.25284682e-02  7.35858939e-03  6.41780526e-02
  1.05648903e-01  1.31137754e-01  1.41947464e-01  1.65391916e-01
  1.69914458e-01  1.95982592e-01  2.20488007e-01  2.53512483e-01
  2.74822035e-01  2.84083772e-01  2.90489895e-01  3.04996530e-01
  3.11767250e-01  3.20204075e-01  3.24276335e-01  3.66117532e-01
  3.82711906e-01  3.94290493e-01  3.98304876e-01  4.11530188e-01
  4.16206596e-01  4.31880249e-01  4.45079990e-01  4.57366972e-01
  4.71419987e-01  4.85434564e-01  4.97375329e-01  5.00221246e-01
  5.16396644e-01  5.36080467e-01  5.52654149e-01  5.87706692e-01
  6.11459428e-01  6.17804938e-01  6.49903081e-01  6.69257905e-01
  7.11279552e-01  7.24357236e-01  7.32588463e-01  7.61247246e-01
  7.73058720e-01  7.95507630e-01  8.63170059e-01  8.77296413e-01
  8.85693728e-01  9.03118760e-01  1.08144173e+00  1.61190011e+00]
nelec by numeric integration = 146.0000090627304
    CPU time for vxc     38.73 sec, wall time     15.87 sec
E1 = -4143.8135973560875  Ecoul = 1916.7036076304482  Exc = -124.87249557864232
cycle= 10 E= -835.314844958736  delta_E= -2.28e-08  |g|= 9.33e-05  |ddm|= 0.000479
    CPU time for cycle= 10     39.12 sec, wall time     15.93 sec
  HOMO = -0.119289739499346  LUMO = -0.012530872836622
  mo_energy =
[-1.00855874e+01 -1.00604522e+01 -1.00287248e+01 -1.00257121e+01
 -1.00242722e+01 -1.00233345e+01 -1.00231897e+01 -1.00221569e+01
 -1.00219479e+01 -1.00208297e+01 -1.00193559e+01 -1.00165937e+01
 -1.00123389e+01 -1.00122742e+01 -1.00113867e+01 -1.00102099e+01
 -1.00100594e+01 -1.00076359e+01 -1.00062693e+01 -1.00061674e+01
 -1.00040190e+01 -1.00025991e+01 -8.92050733e-01 -8.41878678e-01
 -8.31711383e-01 -7.98296687e-01 -7.82604423e-01 -7.59565644e-01
 -7.48531451e-01 -7.29436662e-01 -7.09807814e-01 -6.73830038e-01
 -6.49292882e-01 -6.27469911e-01 -6.04884142e-01 -5.81214217e-01
 -5.69292386e-01 -5.53158653e-01 -5.26014080e-01 -5.18291001e-01
 -4.98197028e-01 -4.86890461e-01 -4.76318609e-01 -4.56783825e-01
 -4.48164149e-01 -4.38443482e-01 -4.25492123e-01 -4.15958245e-01
 -4.07699976e-01 -4.03188213e-01 -3.88233399e-01 -3.78147048e-01
 -3.64371951e-01 -3.61089067e-01 -3.56301992e-01 -3.48482616e-01
 -3.36710154e-01 -3.31430697e-01 -3.21067230e-01 -3.10587203e-01
 -3.08037220e-01 -2.98435437e-01 -2.93189072e-01 -2.81424930e-01
 -2.55810186e-01 -2.49532757e-01 -2.44148253e-01 -2.26986019e-01
 -2.23612161e-01 -1.90011460e-01 -1.73681433e-01 -1.42113796e-01
 -1.19289739e-01 -1.25308728e-02  7.36032590e-03  6.41770381e-02
  1.05646903e-01  1.31136281e-01  1.41947954e-01  1.65391747e-01
  1.69912503e-01  1.95976901e-01  2.20481469e-01  2.53512266e-01
  2.74820104e-01  2.84081951e-01  2.90490529e-01  3.04998358e-01
  3.11763981e-01  3.20205897e-01  3.24273182e-01  3.66115885e-01
  3.82710288e-01  3.94291358e-01  3.98300553e-01  4.11532353e-01
  4.16202073e-01  4.31882879e-01  4.45081335e-01  4.57369246e-01
  4.71419467e-01  4.85437416e-01  4.97377616e-01  5.00219963e-01
  5.16396265e-01  5.36073680e-01  5.52647544e-01  5.87708082e-01
  6.11455228e-01  6.17804553e-01  6.49899058e-01  6.69257146e-01
  7.11280370e-01  7.24352236e-01  7.32589971e-01  7.61248299e-01
  7.73056484e-01  7.95505135e-01  8.63172930e-01  8.77291838e-01
  8.85695601e-01  9.03120963e-01  1.08143868e+00  1.61189317e+00]
nelec by numeric integration = 146.00000906268988
    CPU time for vxc     38.20 sec, wall time     15.79 sec
E1 = -4143.8136489486205  Ecoul = 1916.7036569021077  Exc = -124.8724932605314
cycle= 11 E= -835.314844961499  delta_E= -2.76e-09  |g|= 4.46e-05  |ddm|= 0.000198
    CPU time for cycle= 11     38.69 sec, wall time     15.87 sec
  HOMO = -0.119287642359278  LUMO = -0.0125282181661853
  mo_energy =
[-1.00855895e+01 -1.00604545e+01 -1.00287237e+01 -1.00257127e+01
 -1.00242750e+01 -1.00233277e+01 -1.00231949e+01 -1.00221515e+01
 -1.00219480e+01 -1.00208349e+01 -1.00193454e+01 -1.00166005e+01
 -1.00123374e+01 -1.00122755e+01 -1.00113862e+01 -1.00102009e+01
 -1.00100531e+01 -1.00076284e+01 -1.00062659e+01 -1.00061665e+01
 -1.00040091e+01 -1.00025950e+01 -8.92051086e-01 -8.41876729e-01
 -8.31711006e-01 -7.98297934e-01 -7.82600997e-01 -7.59564290e-01
 -7.48529914e-01 -7.29434200e-01 -7.09807036e-01 -6.73829529e-01
 -6.49290344e-01 -6.27468755e-01 -6.04881974e-01 -5.81214341e-01
 -5.69292292e-01 -5.53156409e-01 -5.26013157e-01 -5.18290362e-01
 -4.98197686e-01 -4.86889359e-01 -4.76318603e-01 -4.56783176e-01
 -4.48162585e-01 -4.38443606e-01 -4.25491593e-01 -4.15958445e-01
 -4.07699594e-01 -4.03186018e-01 -3.88233603e-01 -3.78145721e-01
 -3.64369001e-01 -3.61089219e-01 -3.56298592e-01 -3.48479458e-01
 -3.36706942e-01 -3.31431559e-01 -3.21067208e-01 -3.10585401e-01
 -3.08037613e-01 -2.98434890e-01 -2.93187915e-01 -2.81422766e-01
 -2.55810156e-01 -2.49530344e-01 -2.44145957e-01 -2.26985176e-01
 -2.23609250e-01 -1.90010590e-01 -1.73682529e-01 -1.42113669e-01
 -1.19287642e-01 -1.25282182e-02  7.36221364e-03  6.41778994e-02
  1.05649150e-01  1.31136301e-01  1.41949336e-01  1.65391610e-01
  1.69913225e-01  1.95978329e-01  2.20481056e-01  2.53512204e-01
  2.74822400e-01  2.84083264e-01  2.90490964e-01  3.05001268e-01
  3.11766522e-01  3.20206275e-01  3.24274132e-01  3.66117941e-01
  3.82710870e-01  3.94291788e-01  3.98302374e-01  4.11532181e-01
  4.16200773e-01  4.31885679e-01  4.45081467e-01  4.57368718e-01
  4.71420942e-01  4.85436531e-01  4.97380310e-01  5.00220226e-01
  5.16396952e-01  5.36077327e-01  5.52650195e-01  5.87709052e-01
  6.11458170e-01  6.17808274e-01  6.49901745e-01  6.69257213e-01
  7.11283546e-01  7.24355379e-01  7.32590781e-01  7.61247647e-01
  7.73058454e-01  7.95507756e-01  8.63172986e-01  8.77293019e-01
  8.85692416e-01  9.03125689e-01  1.08143697e+00  1.61189141e+00]
nelec by numeric integration = 146.0000090626952
    CPU time for vxc     37.72 sec, wall time     15.56 sec
E1 = -4143.8135729321775  Ecoul = 1916.7035779754806  Exc = -124.87249035100771
cycle= 12 E= -835.314844962159  delta_E= -6.6e-10  |g|= 1.67e-05  |ddm|= 9.03e-05
    CPU time for cycle= 12     38.07 sec, wall time     15.62 sec
  HOMO = -0.119287757254649  LUMO = -0.0125278754356473
  mo_energy =
[-1.00855831e+01 -1.00604482e+01 -1.00287230e+01 -1.00257115e+01
 -1.00242717e+01 -1.00233293e+01 -1.00231891e+01 -1.00221528e+01
 -1.00219502e+01 -1.00208328e+01 -1.00193453e+01 -1.00165971e+01
 -1.00123366e+01 -1.00122722e+01 -1.00113865e+01 -1.00102014e+01
 -1.00100542e+01 -1.00076281e+01 -1.00062665e+01 -1.00061666e+01
 -1.00040114e+01 -1.00025948e+01 -8.92047713e-01 -8.41876353e-01
 -8.31709758e-01 -7.98296373e-01 -7.82600398e-01 -7.59563576e-01
 -7.48529266e-01 -7.29434145e-01 -7.09806146e-01 -6.73828865e-01
 -6.49290267e-01 -6.27468053e-01 -6.04881898e-01 -5.81212498e-01
 -5.69291276e-01 -5.53156699e-01 -5.26012543e-01 -5.18289302e-01
 -4.98196200e-01 -4.86888929e-01 -4.76318058e-01 -4.56782888e-01
 -4.48162128e-01 -4.38442325e-01 -4.25490262e-01 -4.15956396e-01
 -4.07699233e-01 -4.03185373e-01 -3.88232482e-01 -3.78145148e-01
 -3.64369235e-01 -3.61088314e-01 -3.56299149e-01 -3.48479794e-01
 -3.36707379e-01 -3.31430194e-01 -3.21066075e-01 -3.10585687e-01
 -3.08036654e-01 -2.98433767e-01 -2.93187525e-01 -2.81422472e-01
 -2.55808365e-01 -2.49530507e-01 -2.44146074e-01 -2.26983994e-01
 -2.23609314e-01 -1.90009460e-01 -1.73679681e-01 -1.42113173e-01
 -1.19287757e-01 -1.25278754e-02  7.36232660e-03  6.41788134e-02
  1.05649488e-01  1.31138004e-01  1.41949743e-01  1.65393066e-01
  1.69914417e-01  1.95979721e-01  2.20483497e-01  2.53513468e-01
  2.74822356e-01  2.84083179e-01  2.90491117e-01  3.05000592e-01
  3.11766436e-01  3.20206277e-01  3.24275344e-01  3.66118497e-01
  3.82712293e-01  3.94291975e-01  3.98302546e-01  4.11532413e-01
  4.16203850e-01  4.31884799e-01  4.45082052e-01  4.57369249e-01
  4.71421308e-01  4.85437322e-01  4.97379601e-01  5.00221490e-01
  5.16397923e-01  5.36077079e-01  5.52651014e-01  5.87709582e-01
  6.11458414e-01  6.17808049e-01  6.49902130e-01  6.69258415e-01
  7.11283156e-01  7.24356029e-01  7.32591326e-01  7.61248454e-01
  7.73058695e-01  7.95507948e-01  8.63173907e-01  8.77294756e-01
  8.85694580e-01  9.03124609e-01  1.08144015e+00  1.61189645e+00]
nelec by numeric integration = 146.0000090626982
    CPU time for vxc     37.52 sec, wall time     15.54 sec
E1 = -4143.813482842921  Ecoul = 1916.7034864735872  Exc = -124.87248893845165
cycle= 13 E= -835.31484496224  delta_E= -8.09e-11  |g|= 8.55e-06  |ddm|= 3.62e-05
    CPU time for cycle= 13     37.99 sec, wall time     15.61 sec
  HOMO = -0.119288111089921  LUMO = -0.0125283508108387
  mo_energy =
[-1.00855883e+01 -1.00604530e+01 -1.00287247e+01 -1.00257122e+01
 -1.00242737e+01 -1.00233291e+01 -1.00231946e+01 -1.00221524e+01
 -1.00219470e+01 -1.00208341e+01 -1.00193460e+01 -1.00165986e+01
 -1.00123379e+01 -1.00122753e+01 -1.00113874e+01 -1.00102015e+01
 -1.00100541e+01 -1.00076308e+01 -1.00062669e+01 -1.00061669e+01
 -1.00040090e+01 -1.00025962e+01 -8.92050231e-01 -8.41876899e-01
 -8.31710929e-01 -7.98297728e-01 -7.82601190e-01 -7.59564627e-01
 -7.48529858e-01 -7.29434525e-01 -7.09807178e-01 -6.73829635e-01
 -6.49290595e-01 -6.27468968e-01 -6.04882454e-01 -5.81214011e-01
 -5.69292113e-01 -5.53156618e-01 -5.26013178e-01 -5.18290222e-01
 -4.98197285e-01 -4.86889418e-01 -4.76318692e-01 -4.56783359e-01
 -4.48162728e-01 -4.38443506e-01 -4.25491429e-01 -4.15957972e-01
 -4.07699769e-01 -4.03186069e-01 -3.88233320e-01 -3.78145568e-01
 -3.64369481e-01 -3.61089268e-01 -3.56299159e-01 -3.48480027e-01
 -3.36707152e-01 -3.31431367e-01 -3.21066912e-01 -3.10585855e-01
 -3.08037550e-01 -2.98434724e-01 -2.93188090e-01 -2.81423104e-01
 -2.55809683e-01 -2.49530861e-01 -2.44146367e-01 -2.26984571e-01
 -2.23609634e-01 -1.90010527e-01 -1.73681098e-01 -1.42113833e-01
 -1.19288111e-01 -1.25283508e-02  7.36200449e-03  6.41778180e-02
  1.05648928e-01  1.31136621e-01  1.41949228e-01  1.65391937e-01
  1.69913291e-01  1.95978653e-01  2.20482292e-01  2.53512365e-01
  2.74822087e-01  2.84083145e-01  2.90490809e-01  3.05000216e-01
  3.11766390e-01  3.20206222e-01  3.24274566e-01  3.66117757e-01
  3.82711024e-01  3.94291474e-01  3.98302432e-01  4.11532489e-01
  4.16201730e-01  4.31884718e-01  4.45081238e-01  4.57368381e-01
  4.71420930e-01  4.85436369e-01  4.97379247e-01  5.00220294e-01
  5.16397223e-01  5.36077298e-01  5.52650187e-01  5.87708702e-01
  6.11457934e-01  6.17807187e-01  6.49901686e-01  6.69257363e-01
  7.11283047e-01  7.24355170e-01  7.32590520e-01  7.61247752e-01
  7.73058200e-01  7.95507412e-01  8.63172832e-01  8.77293396e-01
  8.85693129e-01  9.03124823e-01  1.08143781e+00  1.61189272e+00]
nelec by numeric integration = 146.00000906269813
    CPU time for vxc     38.36 sec, wall time     15.77 sec
E1 = -4143.813576530658  Ecoul = 1916.7035830122306  Exc = -124.8724917893066
Extra cycle  E= -835.314844962189  delta_E= 5.14e-11  |g|= 1.54e-05  |ddm|= 3.38e-05
    CPU time for scf_cycle    585.57 sec, wall time    238.46 sec
    CPU time for SCF    585.57 sec, wall time    238.46 sec
converged SCF energy = -835.314844962189
nelec by numeric integration = 146.00000906269813
    CPU time for vxc     37.61 sec, wall time     15.53 sec
 ** Mulliken pop  **
pop of  0 C 1s            1.99071
pop of  0 C 2s            1.11285
pop of  0 C 2px           0.98223
pop of  0 C 2py           0.97883
pop of  0 C 2pz           0.95843
pop of  1 C 1s            1.99043
pop of  1 C 2s            1.10355
pop of  1 C 2px           1.00187
pop of  1 C 2py           0.97306
pop of  1 C 2pz           0.95192
pop of  2 C 1s            1.99143
pop of  2 C 2s            1.23727
pop of  2 C 2px           0.98503
pop of  2 C 2py           0.89598
pop of  2 C 2pz           0.93126
pop of  3 C 1s            1.99090
pop of  3 C 2s            1.10478
pop of  3 C 2px           1.02014
pop of  3 C 2py           0.95258
pop of  3 C 2pz           1.01921
pop of  4 C 1s            1.99131
pop of  4 C 2s            1.18976
pop of  4 C 2px           0.96571
pop of  4 C 2py           0.93266
pop of  4 C 2pz           0.97132
pop of  5 C 1s            1.99106
pop of  5 C 2s            1.16740
pop of  5 C 2px           0.97294
pop of  5 C 2py           0.94135
pop of  5 C 2pz           0.97003
pop of  6 C 1s            1.99113
pop of  6 C 2s            1.19220
pop of  6 C 2px           0.98341
pop of  6 C 2py           0.94923
pop of  6 C 2pz           0.95921
pop of  7 C 1s            1.99085
pop of  7 C 2s            1.14503
pop of  7 C 2px           0.99140
pop of  7 C 2py           0.99245
pop of  7 C 2pz           0.97149
pop of  8 C 1s            1.99094
pop of  8 C 2s            1.16635
pop of  8 C 2px           0.97387
pop of  8 C 2py           0.90951
pop of  8 C 2pz           0.91384
pop of  9 C 1s            1.99046
pop of  9 C 2s            1.10810
pop of  9 C 2px           0.99202
pop of  9 C 2py           0.96288
pop of  9 C 2pz           0.97490
pop of  10 C 1s           1.99341
pop of  10 C 2s           0.97180
pop of  10 C 2px          1.02188
pop of  10 C 2py          1.05442
pop of  10 C 2pz          1.07499
pop of  11 C 1s           1.99077
pop of  11 C 2s           1.13312
pop of  11 C 2px          0.97217
pop of  11 C 2py          0.96793
pop of  11 C 2pz          1.00353
pop of  12 C 1s           1.99331
pop of  12 C 2s           0.93186
pop of  12 C 2px          1.02246
pop of  12 C 2py          1.04098
pop of  12 C 2pz          1.05966
pop of  13 C 1s           1.99048
pop of  13 C 2s           1.10112
pop of  13 C 2px          0.98881
pop of  13 C 2py          0.95476
pop of  13 C 2pz          0.91992
pop of  14 C 1s           1.99213
pop of  14 C 2s           1.12916
pop of  14 C 2px          0.96609
pop of  14 C 2py          0.97208
pop of  14 C 2pz          0.94428
pop of  15 C 1s           1.99053
pop of  15 C 2s           1.07072
pop of  15 C 2px          1.05478
pop of  15 C 2py          0.99374
pop of  15 C 2pz          1.06056
pop of  16 C 1s           1.99158
pop of  16 C 2s           1.10336
pop of  16 C 2px          1.00933
pop of  16 C 2py          0.99853
pop of  16 C 2pz          0.92877
pop of  17 C 1s           1.99119
pop of  17 C 2s           1.13269
pop of  17 C 2px          0.95534
pop of  17 C 2py          0.96599
pop of  17 C 2pz          0.94010
pop of  18 C 1s           1.99113
pop of  18 C 2s           1.14050
pop of  18 C 2px          0.99445
pop of  18 C 2py          0.93079
pop of  18 C 2pz          0.97944
pop of  19 C 1s           1.99100
pop of  19 C 2s           1.18544
pop of  19 C 2px          0.97292
pop of  19 C 2py          0.93495
pop of  19 C 2pz          0.97762
pop of  20 C 1s           1.99058
pop of  20 C 2s           1.09520
pop of  20 C 2px          1.01017
pop of  20 C 2py          1.01737
pop of  20 C 2pz          0.99078
pop of  21 C 1s           1.99085
pop of  21 C 2s           1.16403
pop of  21 C 2px          0.99008
pop of  21 C 2py          0.97055
pop of  21 C 2pz          0.94742
pop of  22 H 1s           0.92616
pop of  23 H 1s           0.91949
pop of  24 H 1s           0.93557
pop of  25 H 1s           0.92993
pop of  26 H 1s           0.91768
pop of  27 H 1s           0.92525
pop of  28 H 1s           0.90632
pop of  29 H 1s           0.92078
pop of  30 H 1s           1.00302
pop of  31 H 1s           0.87394
pop of  32 H 1s           0.92345
pop of  33 H 1s           0.93395
pop of  34 H 1s           0.90691
pop of  35 H 1s           0.91867
 ** Mulliken atomic charges  **
charge of    0C =     -0.02306
charge of    1C =     -0.02084
charge of    2C =     -0.04097
charge of    3C =     -0.08761
charge of    4C =     -0.05076
charge of    5C =     -0.04278
charge of    6C =     -0.07518
charge of    7C =     -0.09122
charge of    8C =      0.04549
charge of    9C =     -0.02835
charge of   10C =     -0.11650
charge of   11C =     -0.06752
charge of   12C =     -0.04827
charge of   13C =      0.04491
charge of   14C =     -0.00374
charge of   15C =     -0.17033
charge of   16C =     -0.03156
charge of   17C =      0.01469
charge of   18C =     -0.03631
charge of   19C =     -0.06194
charge of   20C =     -0.10410
charge of   21C =     -0.06293
charge of   22H =      0.07384
charge of   23H =      0.08051
charge of   24H =      0.06443
charge of   25H =      0.07007
charge of   26H =      0.08232
charge of   27H =      0.07475
charge of   28H =      0.09368
charge of   29H =      0.07922
charge of   30H =     -0.00302
charge of   31H =      0.12606
charge of   32H =      0.07655
charge of   33H =      0.06605
charge of   34H =      0.09309
charge of   35H =      0.08133
Dipole moment(X, Y, Z, Debye): -0.06566,  0.12042, -0.35666
nelec by numeric integration = 146.00000906269813
    CPU time for vxc     37.69 sec, wall time     15.72 sec
E1 = -4143.813576530658  Ecoul = 1916.7035830122313  Exc = -124.8724917893066
nelec by numeric integration = 146.00000906269813
    CPU time for vxc     37.77 sec, wall time     15.59 sec
E1 = -4143.813576530658  Ecoul = 1916.7035830122304  Exc = -124.8724917893066
