System: uname_result(system='Linux', node='cosmopc18', release='5.15.0-97-generic', version='#107-Ubuntu SMP Wed Feb 7 13:26:48 UTC 2024', machine='x86_64')  Threads 4
Python 3.11.8 (main, Feb 26 2024, 21:39:34) [GCC 11.2.0]
numpy 1.26.4  scipy 1.11.4
Date: Tue Apr  9 11:05:45 2024
PySCF version 2.3.0
PySCF path  /home/saade/miniconda3/envs/tutorial/lib/python3.11/site-packages/pyscf

[ENV] PYSCFAD_BACKEND torch
[CONFIG] conf_file None
[INPUT] verbose = 5
[INPUT] max_memory = 4000 
[INPUT] num. atoms = 36
[INPUT] num. electrons = 146
[INPUT] charge = 0
[INPUT] spin (= nelec alpha-beta = 2S) = 0
[INPUT] symmetry False subgroup None
[INPUT] Mole.unit = angstrom
[INPUT] Symbol           X                Y                Z      unit          X                Y                Z       unit  Magmom
[INPUT]  1 C     -0.046177000000   3.683273000000   0.690901000000 AA   -0.087261883254   6.960377212005   1.305613669188 Bohr   0.0
[INPUT]  2 C      0.041046000000   3.869506000000  -0.668920000000 AA    0.077565698509   7.312306577361  -1.264075599244 Bohr   0.0
[INPUT]  3 C     -0.031252000000   4.873364000000   1.505919000000 AA   -0.059057720845   9.209323265315   2.845774475779 Bohr   0.0
[INPUT]  4 C      0.164682000000   2.352636000000   1.444838000000 AA    0.311203877646   4.445837710792   2.730348114364 Bohr   0.0
[INPUT]  5 C      0.173026000000   4.880594000000  -1.440926000000 AA    0.326971752429   9.222985985195  -2.722955505765 Bohr   0.0
[INPUT]  6 C     -0.123206000000   2.419509000000  -1.306555000000 AA   -0.232825596903   4.572209365920  -2.469031116681 Bohr   0.0
[INPUT]  7 C     -0.138769000000   6.130849000000  -0.683482000000 AA   -0.262235404580  11.585625521064  -1.291593791070 Bohr   0.0
[INPUT]  8 C     -0.040720000000   6.080013000000   0.613287000000 AA   -0.076949647792  11.489559403795   1.158944465756 Bohr   0.0
[INPUT]  9 C      0.097085000000   1.242827000000   0.751427000000 AA    0.183464060803   2.348602650215   1.419991232604 Bohr   0.0
[INPUT] 10 C     -0.077588000000   1.332487000000  -0.764863000000 AA   -0.146620070553   2.518035494543  -1.445381592813 Bohr   0.0
[INPUT] 11 C      0.029212000000   0.000623000000   1.710575000000 AA    0.055202679551   0.001177299376   3.232518265528 Bohr   0.0
[INPUT] 12 C      0.213426000000  -0.049142000000  -1.191883000000 AA    0.403316687861  -0.092864921213  -2.252332442525 Bohr   0.0
[INPUT] 13 C     -0.197024000000  -1.261124000000   0.574589000000 AA   -0.372321399966  -2.383178969116   1.085815844188 Bohr   0.0
[INPUT] 14 C     -0.131500000000  -1.198934000000  -0.789681000000 AA   -0.248498985380  -2.265656901429  -1.492280815773 Bohr   0.0
[INPUT] 15 C      0.079908000000  -2.569701000000   1.568087000000 AA    0.151004235162  -4.856031112021   2.963254969491 Bohr   0.0
[INPUT] 16 C      0.059134000000  -2.376501000000  -1.449227000000 AA    0.111747064650  -4.490936024755  -2.738642122325 Bohr   0.0
[INPUT] 17 C      0.009087000000  -3.497264000000   0.805322000000 AA    0.017171941294  -6.608871145301   1.521838022087 Bohr   0.0
[INPUT] 18 C      0.078213000000  -3.506225000000  -0.637046000000 AA    0.147801149381  -6.625804981103  -1.203842468750 Bohr   0.0
[INPUT] 19 C      0.014838000000  -5.053603000000   1.435414000000 AA    0.028039756236  -9.549925612280   2.712539335366 Bohr   0.0
[INPUT] 20 C      0.069451000000  -5.123349000000  -1.386918000000 AA    0.131243369077  -9.681726450564  -2.620895177230 Bohr   0.0
[INPUT] 21 C      0.114253000000  -6.132266000000   0.763969000000 AA    0.215906878910 -11.588303262982   1.443692177658 Bohr   0.0
[INPUT] 22 C      0.075444000000  -5.881861000000  -0.807021000000 AA    0.142568497742 -11.115106392760  -1.525048666773 Bohr   0.0
[INPUT] 23 H     -0.095065000000   4.855593000000   2.387034000000 AA   -0.179646814032   9.175740942355   4.510840510025 Bohr   0.0
[INPUT] 24 H      0.109453000000   2.518271000000   2.553169000000 AA    0.206836193512   4.758842497435   4.824790159730 Bohr   0.0
[INPUT] 25 H     -0.082883000000   4.903267000000  -2.627015000000 AA   -0.156626170382   9.265831745618  -4.964338875124 Bohr   0.0
[INPUT] 26 H      0.111199000000   2.682719000000  -2.456233000000 AA    0.210135655326   5.069604179167  -4.641607668119 Bohr   0.0
[INPUT] 27 H     -0.084941000000   7.091970000000  -1.105707000000 AA   -0.160515226747  13.401880983632  -2.089483404014 Bohr   0.0
[INPUT] 28 H      0.112999000000   6.979846000000   1.221169000000 AA    0.213537162350  13.189997331641   2.307674961809 Bohr   0.0
[INPUT] 29 H     -0.041324000000   0.129515000000   2.487350000000 AA   -0.078091042372   0.244747879023   4.700410275937 Bohr   0.0
[INPUT] 30 H      0.029064000000   0.161078000000  -2.361214000000 AA    0.054923000084   0.304393304693  -4.462047781489 Bohr   0.0
[INPUT] 31 H      0.053836000000  -2.300295000000   2.407782000000 AA    0.101735295642  -4.346927555706   4.550048547658 Bohr   0.0
[INPUT] 32 H     -0.064161000000  -2.562014000000  -2.490035000000 AA   -0.121246717878  -4.841504787301  -4.705484190581 Bohr   0.0
[INPUT] 33 H      0.120152000000  -4.671769000000   2.552452000000 AA    0.227054373319  -8.828363927233   4.823435226098 Bohr   0.0
[INPUT] 34 H      0.065548000000  -4.934177000000  -2.541138000000 AA    0.123867768013  -9.324243180128  -4.802054864725 Bohr   0.0
[INPUT] 35 H     -0.119615000000  -7.052992000000   1.273741000000 AA   -0.226039590390 -13.328223238748   2.407021643630 Bohr   0.0
[INPUT] 36 H     -0.078000000000  -7.135385000000  -1.402757000000 AA   -0.147398637716 -13.483923443330  -2.650826549317 Bohr   0.0
[INPUT] ---------------- BASIS SET ---------------- 
[INPUT] l, kappa, [nprim/nctr], expnt,             c_1 c_2 ...
[INPUT] H
[INPUT] 0    0    [3    /1   ]  3.42525091        0.15432897
                                0.62391373        0.53532814
                                0.1688554         0.44463454
[INPUT] C
[INPUT] 0    0    [3    /1   ]  71.616837         0.15432897
                                13.045096         0.53532814
                                3.5305122         0.44463454
[INPUT] 0    0    [3    /1   ]  2.9412494         -0.09996723
                                0.6834831         0.39951283
                                0.2222899         0.70011547
[INPUT] 1    0    [3    /1   ]  2.9412494         0.15591627
                                0.6834831         0.60768372
                                0.2222899         0.39195739

nuclear repulsion = 1493.31444027221
number of shells = 80
number of NR pGTOs = 372
number of NR cGTOs = 124
basis = sto3g
ecp = {}
CPU time:     12284.20
atom C rad-grids = 99, ang-grids = [ 50  50  50  50  50  50  50  50  50  50  50  50  50  50  50  50  50  50
  50  50  50  50  50  50  50  50  50  50  50  50  50  86  86  86  86  86
  86  86  86  86  86  86  86 434 434 434 434 434 434 434 434 434 590 590
 590 590 590 590 590 590 590 590 590 590 590 590 590 590 590 590 590 590
 590 590 590 590 590 590 590 434 434 434 434 434 434 434 434 434 434 434
 434 434 434 434 434 434 434 434 434]
atom H rad-grids = 99, ang-grids = [ 50  50  50  50  50  50  50  50  50  50  50  50  50  50  50  50  50  50
  50  50  50  50  50  50  50  50  50  50  86  86  86  86  86  86  86 434
 434 434 434 434 434 434 434 590 590 590 590 590 590 590 590 590 590 590
 590 590 590 590 590 590 590 590 590 590 590 590 590 590 590 434 434 434
 434 434 434 434 434 434 434 434 434 434 434 434 434 434 434 434 434 434
 434 434 434 434 434 434 434 434 434]
tot_boxes 5270, boxes in each direction [ 8 29 15]
Padding 0 grids
tot grids = 1157832


******** <class 'pyscf.dft.rks.RKS'> ********
method = RKS
initial guess = minao
damping factor = 0
level_shift factor = 0
DIIS = <class 'pyscf.scf.diis.CDIIS'>
diis_start_cycle = 1
diis_space = 8
SCF conv_tol = 1e-10
SCF conv_tol_grad = None
SCF max_cycles = 50
direct_scf = True
direct_scf_tol = 1e-13
chkfile to save SCF result = /home/saade/mlelec/tutorials/tmp77386zkt
max_memory 4000 MB (current use 636 MB)
XC library pyscf.dft.libxc version 6.1.0
    S. Lehtola, C. Steigemann, M. J.T. Oliveira, and M. A.L. Marques.,  SoftwareX 7, 1–5 (2018)
XC functionals = b3lypg
    P. J. Stephens, F. J. Devlin, C. F. Chabalowski, and M. J. Frisch.,  J. Phys. Chem. 98, 11623 (1994)
radial grids: 
    Treutler-Ahlrichs [JCP 102, 346 (1995); DOI:10.1063/1.469408] (M4) radial grids
    
becke partition: Becke, JCP 88, 2547 (1988); DOI:10.1063/1.454033
pruning grids: <function nwchem_prune at 0x7f9db5616ca0>
grids dens level: 3
symmetrized grids: False
atomic radii adjust function: <function treutler_atomic_radii_adjust at 0x7f9db5617380>
User specified grid scheme (99, 590)
small_rho_cutoff = 1e-07
Set gradient conv threshold to 1e-05
Initial guess from minao.
nelec by numeric integration = 145.26749945708204
    CPU time for vxc     37.06 sec, wall time     15.50 sec
E1 = -4085.312736630096  Ecoul = 1876.7828622939426  Exc = -126.10051581390437
init E= -841.315949877849
cond(S) = 56.824399783232266
    CPU time for initialize scf     46.66 sec, wall time     17.82 sec
  HOMO = -0.211493613702015  LUMO = -0.155931670152633
  mo_energy =
[-1.02254711e+01 -1.02031553e+01 -1.01413902e+01 -1.01412087e+01
 -1.01246750e+01 -1.01180370e+01 -1.01163543e+01 -1.01120102e+01
 -1.01107229e+01 -1.01097280e+01 -1.01076428e+01 -1.01018495e+01
 -1.00996235e+01 -1.00987275e+01 -1.00940402e+01 -1.00930806e+01
 -1.00921916e+01 -1.00911669e+01 -1.00898813e+01 -1.00833126e+01
 -1.00801164e+01 -1.00777051e+01 -1.09449632e+00 -1.07384043e+00
 -1.05577446e+00 -1.01156920e+00 -9.79830480e-01 -9.34454911e-01
 -9.05430965e-01 -8.97765764e-01 -8.79808296e-01 -8.64299771e-01
 -8.01590114e-01 -7.61266461e-01 -7.27804281e-01 -7.11446767e-01
 -6.91001460e-01 -6.74644459e-01 -6.46104837e-01 -6.40038183e-01
 -6.00916827e-01 -5.90700091e-01 -5.65592201e-01 -5.55027925e-01
 -5.41075270e-01 -5.35567499e-01 -5.17256192e-01 -5.10182131e-01
 -5.05205604e-01 -4.94699492e-01 -4.88432283e-01 -4.82792416e-01
 -4.71057624e-01 -4.67235972e-01 -4.55369294e-01 -4.52910551e-01
 -4.36274131e-01 -4.26632487e-01 -4.10527444e-01 -3.97537064e-01
 -3.89652680e-01 -3.70814139e-01 -3.60342945e-01 -3.44691633e-01
 -3.40123168e-01 -3.15918840e-01 -3.07338337e-01 -2.93307727e-01
 -2.89360375e-01 -2.80008246e-01 -2.72569549e-01 -2.69720894e-01
 -2.11493614e-01 -1.55931670e-01 -8.63411756e-02 -7.34171191e-02
 -4.63633667e-02 -2.53474596e-02 -1.64606810e-02 -8.97557809e-03
  1.87139456e-02  6.47918627e-02  7.39274040e-02  8.51599156e-02
  9.95686779e-02  1.09876723e-01  1.21675019e-01  1.43096943e-01
  1.61712733e-01  1.72738385e-01  1.75678838e-01  1.91090147e-01
  2.13305258e-01  2.18394948e-01  2.33661407e-01  2.61742582e-01
  2.71044804e-01  2.81998934e-01  2.98109714e-01  3.07625043e-01
  3.21980556e-01  3.35832063e-01  3.73768006e-01  3.79423537e-01
  3.92356731e-01  4.01225258e-01  4.37955492e-01  4.58890166e-01
  4.91670063e-01  5.01152807e-01  5.17371813e-01  5.52155696e-01
  5.58352069e-01  5.97227719e-01  6.01050802e-01  6.17719038e-01
  6.75695435e-01  6.88529654e-01  7.13840037e-01  7.36599880e-01
  7.92490063e-01  8.33853240e-01  8.88356193e-01  1.35595793e+00]
nelec by numeric integration = 146.00000154759906
    CPU time for vxc     37.50 sec, wall time     15.55 sec
E1 = -4100.201214411579  Ecoul = 1896.6412900602347  Exc = -124.82924147251276
cycle= 1 E= -835.074725551648  delta_E= 6.24  |g|= 0.334  |ddm|= 9.31
    CPU time for cycle= 1     37.86 sec, wall time     15.61 sec
  HOMO = -0.0868359434979749  LUMO = 0.00511619490422661
  mo_energy =
[-1.00846247e+01 -1.00463479e+01 -1.00449737e+01 -1.00201659e+01
 -1.00081879e+01 -1.00077911e+01 -9.99875308e+00 -9.99496302e+00
 -9.99436372e+00 -9.99436154e+00 -9.98656354e+00 -9.98172424e+00
 -9.98171468e+00 -9.97805465e+00 -9.97623278e+00 -9.97051096e+00
 -9.96985714e+00 -9.95661225e+00 -9.95387326e+00 -9.94314724e+00
 -9.93679998e+00 -9.93334629e+00 -8.51357506e-01 -8.17244049e-01
 -7.95005216e-01 -7.70766326e-01 -7.58946330e-01 -7.17399934e-01
 -7.16335867e-01 -7.04584098e-01 -6.89269601e-01 -6.84910136e-01
 -6.23812257e-01 -6.07375108e-01 -5.95448799e-01 -5.73974845e-01
 -5.44570290e-01 -5.35606343e-01 -5.19804735e-01 -5.07221775e-01
 -4.76075007e-01 -4.75505236e-01 -4.47529287e-01 -4.35731050e-01
 -4.29428758e-01 -4.25092379e-01 -4.10908005e-01 -3.97884679e-01
 -3.89360776e-01 -3.85255489e-01 -3.80851382e-01 -3.70642663e-01
 -3.55441932e-01 -3.52617492e-01 -3.42099942e-01 -3.33038900e-01
 -3.28870623e-01 -3.17821639e-01 -3.10383951e-01 -2.90773757e-01
 -2.79411951e-01 -2.56100344e-01 -2.52085835e-01 -2.38944862e-01
 -2.16891538e-01 -2.09751163e-01 -2.01354267e-01 -1.97181527e-01
 -1.89051455e-01 -1.87747604e-01 -1.68256506e-01 -1.57720398e-01
 -8.68359435e-02  5.11619490e-03  5.68860281e-02  7.11014054e-02
  1.03835375e-01  1.19240299e-01  1.26801211e-01  1.55598891e-01
  1.77539993e-01  2.25566139e-01  2.33640581e-01  2.36532564e-01
  2.46888809e-01  2.64767189e-01  2.68227991e-01  3.01715063e-01
  3.24347639e-01  3.28069443e-01  3.48093154e-01  3.55807049e-01
  3.58900785e-01  3.75611563e-01  3.84969472e-01  3.90913938e-01
  4.18094435e-01  4.32538608e-01  4.48816374e-01  4.56246663e-01
  4.63065042e-01  4.81611971e-01  5.12334750e-01  5.21314166e-01
  5.46554936e-01  5.58030822e-01  5.90723497e-01  6.01749021e-01
  6.53457616e-01  6.61203756e-01  6.63149074e-01  6.94154425e-01
  7.05621706e-01  7.44566558e-01  7.53346872e-01  7.76010999e-01
  8.24798703e-01  8.36767481e-01  8.72089942e-01  8.95658093e-01
  9.57407511e-01  1.01352396e+00  1.04466194e+00  1.58494269e+00]
nelec by numeric integration = 146.00000156321897
    CPU time for vxc     37.99 sec, wall time     15.67 sec
E1 = -4095.89755982987  Ecoul = 1892.1901748410376  Exc = -124.65979591573834
cycle= 2 E= -835.052740632362  delta_E= 0.022  |g|= 0.445  |ddm|=  1.1
    CPU time for cycle= 2     38.37 sec, wall time     15.73 sec
  HOMO = -0.106334877988842  LUMO = -0.0130368298530997
  mo_energy =
[-10.04980887 -10.03419167 -10.0265865  -10.01942448 -10.01818328
 -10.01671229 -10.01519232 -10.0122788  -10.00996384 -10.00686896
 -10.00628504 -10.00379003 -10.00225321 -10.00139675  -9.99930514
  -9.9987056   -9.99760045  -9.99655618  -9.99384266  -9.99376941
  -9.98433343  -9.97003655  -0.84086924  -0.83126657  -0.81592246
  -0.79195967  -0.76722536  -0.74297124  -0.72123757  -0.71802331
  -0.70704455  -0.68778105  -0.65416239  -0.60876459  -0.58709016
  -0.58512663  -0.55760689  -0.54890082  -0.52213343  -0.51496431
  -0.48840078  -0.48259754  -0.45506734  -0.44814982  -0.43600309
  -0.42599338  -0.42472352  -0.40337007  -0.39999774  -0.39587932
  -0.38998133  -0.37548619  -0.36631057  -0.36238888  -0.35351189
  -0.34930549  -0.34109066  -0.32791068  -0.31979213  -0.29712736
  -0.28927513  -0.26864841  -0.26473935  -0.2543607   -0.2406527
  -0.22022315  -0.21018721  -0.20107802  -0.19371118  -0.1890188
  -0.1769353   -0.16576077  -0.10633488  -0.01303683   0.05148834
   0.07476814   0.09600747   0.11312024   0.12295065   0.13390872
   0.16828064   0.21377348   0.21878787   0.23854912   0.24699167
   0.26228526   0.26768788   0.2862981    0.31252945   0.3194584
   0.32617306   0.33478357   0.34773991   0.35629163   0.37701675
   0.39159567   0.40975198   0.41349769   0.43470822   0.44503692
   0.46027189   0.47276463   0.50878052   0.52949715   0.53549434
   0.54462537   0.587905     0.5941457    0.63067791   0.64547757
   0.64727321   0.70217878   0.70818087   0.73514712   0.75028594
   0.77194896   0.81757597   0.82129518   0.86261969   0.88785884
   0.91251483   0.98031854   1.04263554   1.53910791]
nelec by numeric integration = 146.00000155841377
    CPU time for vxc     38.13 sec, wall time     15.76 sec
E1 = -4095.7575672345997  Ecoul = 1892.050127940624  Exc = -124.69607895700325
cycle= 3 E= -835.08907797877  delta_E= -0.0363  |g|= 0.294  |ddm|= 0.917
    CPU time for cycle= 3     38.49 sec, wall time     15.82 sec
  HOMO = -0.109856495803999  LUMO = -0.0193022685353741
  mo_energy =
[-10.07566789 -10.05438475 -10.0462566  -10.03369147 -10.02741416
 -10.02594536 -10.02412716 -10.01900655 -10.01680686 -10.01615887
 -10.01555269 -10.01511236 -10.01450186 -10.01251122 -10.01225404
 -10.01123487 -10.00452806 -10.00394679 -10.00319084 -10.00185621
  -9.99364036  -9.98725468  -0.85827935  -0.84008243  -0.83187209
  -0.80087707  -0.77988999  -0.7419139   -0.72855052  -0.72079302
  -0.70875055  -0.6985786   -0.64611419  -0.62158238  -0.60022515
  -0.58747243  -0.56499378  -0.54963078  -0.529562    -0.52381591
  -0.49454885  -0.48964881  -0.46395236  -0.45521713  -0.43919256
  -0.43509003  -0.42648623  -0.41045232  -0.40949539  -0.40431025
  -0.39145432  -0.38555903  -0.37582687  -0.36865742  -0.36240298
  -0.36087389  -0.3459106   -0.33580065  -0.32617691  -0.30411497
  -0.30043557  -0.27553278  -0.27412017  -0.25764824  -0.24373105
  -0.22906099  -0.21904211  -0.20841826  -0.2006676   -0.19512283
  -0.18332064  -0.17572505  -0.1098565   -0.01930227   0.04793022
   0.0624332    0.08793852   0.10708567   0.11553996   0.1300153
   0.15765486   0.20577363   0.21289239   0.22756096   0.23940859
   0.25083404   0.25524202   0.28089097   0.30406079   0.3077039
   0.31191871   0.3335175    0.34658143   0.35344833   0.36789885
   0.38285117   0.40945165   0.41390948   0.43145183   0.44413199
   0.44695456   0.4694748    0.50164871   0.5169826    0.52395067
   0.54110845   0.57774427   0.58998612   0.62856468   0.63501715
   0.64660439   0.68817805   0.69598295   0.73307119   0.73949273
   0.75672845   0.80949758   0.81866117   0.84895379   0.872724
   0.92876108   0.97400865   1.03039264   1.5191786 ]
nelec by numeric integration = 146.0000015591662
    CPU time for vxc     37.84 sec, wall time     15.69 sec
E1 = -4097.389420904276  Ecoul = 1893.673876615726  Exc = -124.71346252674086
cycle= 4 E= -835.114566543083  delta_E= -0.0255  |g|= 0.12  |ddm|= 0.597
    CPU time for cycle= 4     38.37 sec, wall time     15.77 sec
  HOMO = -0.112006671611224  LUMO = -0.0213903954718552
  mo_energy =
[-10.07500467 -10.0543132  -10.04849867 -10.03467555 -10.02799612
 -10.0246863  -10.02466509 -10.02351111 -10.0232157  -10.01907361
 -10.01786701 -10.01697949 -10.01624158 -10.011588   -10.01031666
 -10.0091377  -10.00878247 -10.00745635 -10.00484353 -10.00382344
 -10.00224229  -9.9992028   -0.85894192  -0.83988909  -0.83232827
  -0.80100889  -0.7814509   -0.74313813  -0.72956795  -0.72359161
  -0.7104168   -0.70042005  -0.65113667  -0.62189761  -0.60243351
  -0.58916847  -0.56468557  -0.55126543  -0.53100128  -0.52556047
  -0.4950359   -0.48994024  -0.4631451   -0.4546641   -0.43999756
  -0.43703967  -0.42737162  -0.4140098   -0.40915716  -0.40497343
  -0.39322364  -0.38728877  -0.37693505  -0.36932471  -0.36364429
  -0.35907617  -0.34825672  -0.33657913  -0.32618572  -0.30505073
  -0.30222818  -0.27660007  -0.2727092   -0.26010998  -0.24392744
  -0.22743864  -0.21970576  -0.21086787  -0.20269767  -0.20004619
  -0.18635687  -0.17838472  -0.11200667  -0.0213904    0.04545902
   0.05749544   0.08702465   0.10524457   0.11354712   0.12975769
   0.15616363   0.20498939   0.21369974   0.22366977   0.23378264
   0.24894096   0.25395325   0.28219449   0.3034267    0.30837387
   0.31164993   0.33312237   0.34578285   0.35067938   0.36779727
   0.381464     0.41086139   0.4122567    0.43299732   0.44307285
   0.44710078   0.46913183   0.50039404   0.51658028   0.52512156
   0.53930661   0.57623074   0.58901753   0.62848309   0.63377211
   0.64473723   0.6868307    0.69254125   0.73057319   0.73698599
   0.75412504   0.80742639   0.81869836   0.85246344   0.87498687
   0.92242918   0.97615253   1.02414516   1.51895615]
nelec by numeric integration = 146.00000156256414
    CPU time for vxc     38.36 sec, wall time     15.79 sec
E1 = -4097.295211822835  Ecoul = 1893.5754724418432  Exc = -124.71431752327626
cycle= 5 E= -835.119616632059  delta_E= -0.00505  |g|= 0.0368  |ddm|= 0.257
    CPU time for cycle= 5     38.90 sec, wall time     15.87 sec
  HOMO = -0.111936156192401  LUMO = -0.0209283895433205
  mo_energy =
[-10.0666059  -10.04778265 -10.04586381 -10.03000975 -10.02711137
 -10.02497361 -10.02354672 -10.02109208 -10.01938581 -10.01934728
 -10.01899319 -10.01794849 -10.01784211 -10.01185044 -10.01051295
 -10.00772184 -10.00706005 -10.00681218 -10.00567814 -10.00391346
 -10.0022354  -10.00203407  -0.85740821  -0.83887841  -0.82952662
  -0.80014092  -0.78012175  -0.74310747  -0.72869995  -0.72242094
  -0.71042026  -0.69949348  -0.65014212  -0.62117974  -0.60092068
  -0.58906188  -0.56431544  -0.55115402  -0.52930963  -0.52421249
  -0.49342778  -0.48955271  -0.46219884  -0.45447169  -0.44006872
  -0.43569642  -0.42759016  -0.41203209  -0.40885776  -0.40313306
  -0.39249412  -0.38622576  -0.37505062  -0.36947336  -0.36126445
  -0.3589282   -0.34743163  -0.33621797  -0.32656832  -0.30451585
  -0.30058805  -0.27616656  -0.27352862  -0.25948201  -0.24421504
  -0.22792913  -0.21922141  -0.20939871  -0.2018712   -0.19819761
  -0.18580573  -0.17770482  -0.11193616  -0.02092839   0.04610799
   0.05907987   0.087527     0.10618863   0.11533571   0.12990218
   0.15702923   0.20556555   0.21363833   0.22639074   0.23526904
   0.25059114   0.25540707   0.28148939   0.30612605   0.30875764
   0.3147199    0.33363781   0.34558487   0.35152896   0.36895504
   0.38320566   0.41012151   0.41230426   0.43217795   0.44296423
   0.4475141    0.46856942   0.50244034   0.51764495   0.52490806
   0.53934417   0.57765365   0.58874281   0.62837048   0.63627649
   0.64472318   0.68818503   0.69426256   0.7304561    0.73818081
   0.75514548   0.80878821   0.81841681   0.85147368   0.87387307
   0.92351799   0.97529452   1.02764409   1.52513453]
nelec by numeric integration = 146.00000156157736
    CPU time for vxc     38.04 sec, wall time     15.69 sec
E1 = -4097.184859082226  Ecoul = 1893.4617845122295  Exc = -124.71146759740779
cycle= 6 E= -835.120101895195  delta_E= -0.000485  |g|= 0.0106  |ddm|= 0.0672
    CPU time for cycle= 6     38.35 sec, wall time     15.74 sec
  HOMO = -0.11146524182337  LUMO = -0.0203871184450947
  mo_energy =
[-10.06757962 -10.0466996  -10.0463061  -10.03071515 -10.02682831
 -10.02427087 -10.02210094 -10.02024469 -10.01937777 -10.01935875
 -10.01749206 -10.01709529 -10.01671498 -10.01165435 -10.00933799
 -10.00769685 -10.00667291 -10.00549876 -10.00541273 -10.00413084
 -10.00284263 -10.00156698  -0.85693426  -0.83865672  -0.82958215
  -0.79997596  -0.77987201  -0.74278532  -0.72842491  -0.72208318
  -0.71002942  -0.6991764   -0.64968008  -0.62089908  -0.60050726
  -0.58873542  -0.56407678  -0.55086341  -0.52934667  -0.52414633
  -0.49343254  -0.48934588  -0.46201282  -0.45411096  -0.43976645
  -0.43545502  -0.42730732  -0.41186132  -0.40870981  -0.40315173
  -0.39221082  -0.38598873  -0.37498979  -0.36906583  -0.36123551
  -0.35878307  -0.34721844  -0.33581579  -0.32622709  -0.30440261
  -0.30065203  -0.27581788  -0.27310686  -0.25928094  -0.24391457
  -0.22765033  -0.21904768  -0.20945939  -0.20167977  -0.19801512
  -0.18543435  -0.17741275  -0.11146524  -0.02038712   0.04643761
   0.05959586   0.08782774   0.10631152   0.11516661   0.13018154
   0.15735863   0.20573256   0.21416705   0.22638668   0.2359696
   0.25077713   0.25556729   0.28181884   0.30600457   0.30885123
   0.31439061   0.33393467   0.34590482   0.35175934   0.36897797
   0.38293111   0.41037133   0.41266595   0.43246917   0.44322119
   0.44800143   0.4690348    0.50241472   0.51804252   0.52505864
   0.5396006    0.57777871   0.58914771   0.6287263    0.63631774
   0.64510555   0.6885703    0.6947971    0.73102179   0.73863647
   0.75572046   0.80890995   0.81863975   0.85205069   0.87453273
   0.92415536   0.97565779   1.02747389   1.52445743]
nelec by numeric integration = 146.00000156338737
    CPU time for vxc     37.77 sec, wall time     15.60 sec
E1 = -4097.181672874647  Ecoul = 1893.4579362105635  Exc = -124.71083853162129
cycle= 7 E= -835.120134923496  delta_E= -3.3e-05  |g|= 0.00366  |ddm|= 0.0171
    CPU time for cycle= 7     38.33 sec, wall time     15.69 sec
  HOMO = -0.11142673285749  LUMO = -0.0202615738424539
  mo_energy =
[-10.06827133 -10.04731894 -10.0465174  -10.03021776 -10.02650297
 -10.02404343 -10.02235603 -10.01938615 -10.0192787  -10.0190645
 -10.01713501 -10.01707308 -10.01705776 -10.01161297 -10.0091706
 -10.00723893 -10.00632555 -10.00556905 -10.00494037 -10.00379285
 -10.00221216 -10.00158325  -0.85688776  -0.83855787  -0.82973382
  -0.79981803  -0.77974381  -0.74266111  -0.72829418  -0.72199347
  -0.70988446  -0.69905524  -0.64963855  -0.62075523  -0.60047245
  -0.58859105  -0.56395413  -0.55075552  -0.5292625   -0.52403756
  -0.49342417  -0.48927846  -0.46202649  -0.45406559  -0.43970968
  -0.43541309  -0.42721629  -0.41179952  -0.40863797  -0.40320884
  -0.39218155  -0.38594409  -0.37498907  -0.36898666  -0.36126432
  -0.35876277  -0.34713061  -0.33575104  -0.32613097  -0.30425285
  -0.30046651  -0.2757074   -0.27298579  -0.25913674  -0.24378137
  -0.22749799  -0.21888655  -0.20937497  -0.20156799  -0.19792258
  -0.18530136  -0.17727722  -0.11142673  -0.02026157   0.04660372
   0.05967173   0.08798621   0.10643819   0.1152427    0.13031126
   0.15747109   0.20591471   0.2142525    0.22652263   0.23596193
   0.25081441   0.25558931   0.28192906   0.30601334   0.30891612
   0.31426256   0.33398309   0.34603355   0.35183004   0.36905329
   0.38310512   0.41047415   0.41273612   0.4325886    0.44338719
   0.44796155   0.46917266   0.502376     0.51809635   0.52527704
   0.53982545   0.57791714   0.58925685   0.628835     0.63621044
   0.64525063   0.68864863   0.69484035   0.73117776   0.73869414
   0.75575913   0.80913326   0.81886172   0.85220077   0.87468483
   0.92414185   0.97582975   1.02773251   1.52401785]
nelec by numeric integration = 146.00000156250093
    CPU time for vxc     37.81 sec, wall time     15.67 sec
E1 = -4097.1724565430295  Ecoul = 1893.4486213305534  Exc = -124.71074459810002
cycle= 8 E= -835.120139538367  delta_E= -4.61e-06  |g|= 0.000392  |ddm|= 0.00554
    CPU time for cycle= 8     38.40 sec, wall time     15.75 sec
  HOMO = -0.111453000832112  LUMO = -0.0202611869069268
  mo_energy =
[-10.06818643 -10.04726582 -10.04651882 -10.0303155  -10.02653279
 -10.02412612 -10.02232586 -10.01945084 -10.01936204 -10.01912043
 -10.01718303 -10.01715067 -10.01709101 -10.01153879 -10.00920833
 -10.00722603 -10.00631434 -10.00558456 -10.00499727 -10.00378873
 -10.00232627 -10.00157047  -0.85690718  -0.83857344  -0.82972627
  -0.79983655  -0.77977145  -0.74266486  -0.72833479  -0.72202414
  -0.70990356  -0.69907573  -0.64965072  -0.62077822  -0.60049552
  -0.58861672  -0.56397177  -0.55076663  -0.52929531  -0.52405896
  -0.4934381   -0.48929695  -0.46203856  -0.45407568  -0.43970801
  -0.43542337  -0.42722427  -0.41180793  -0.40863345  -0.40322998
  -0.39218952  -0.38595903  -0.37499999  -0.3690049   -0.36126487
  -0.3587627   -0.34714674  -0.33576346  -0.32614208  -0.30426592
  -0.30050122  -0.27572514  -0.27298422  -0.25915281  -0.24378524
  -0.22750552  -0.21892474  -0.20937629  -0.2015844   -0.19794396
  -0.18532211  -0.17729553  -0.111453    -0.02026119   0.04658304
   0.05965587   0.08795861   0.1064223    0.11525198   0.13030259
   0.15745078   0.205895     0.21425501   0.22648869   0.23595705
   0.25080198   0.25558697   0.28192716   0.30601146   0.30890672
   0.31426881   0.33398502   0.34602235   0.35182004   0.36903624
   0.38305586   0.41046954   0.41272639   0.4325996    0.44337655
   0.44795513   0.46915184   0.50234953   0.51807676   0.52526029
   0.53981086   0.57789061   0.58923481   0.62883163   0.63619793
   0.64522815   0.6886182    0.69482001   0.73115586   0.73867363
   0.75575412   0.80906221   0.8188378    0.85218225   0.87465945
   0.92411662   0.97581643   1.02766962   1.52406324]
nelec by numeric integration = 146.0000015625645
    CPU time for vxc     37.99 sec, wall time     15.66 sec
E1 = -4097.174736670267  Ecoul = 1893.4509578770549  Exc = -124.71080107026862
cycle= 9 E= -835.120139591272  delta_E= -5.29e-08  |g|= 0.000178  |ddm|= 0.000828
    CPU time for cycle= 9     38.58 sec, wall time     15.75 sec
  HOMO = -0.111457771148071  LUMO = -0.0202600002156814
  mo_energy =
[-10.06818179 -10.04725603 -10.04651074 -10.03029778 -10.02654378
 -10.02409616 -10.02233355 -10.01942782 -10.01932024 -10.01911652
 -10.01717564 -10.01715859 -10.01708268 -10.01157609 -10.00919871
 -10.0072739  -10.00635447 -10.00557985 -10.00499256 -10.00381332
 -10.00231709 -10.00157518  -0.85690409  -0.83857157  -0.82972221
  -0.79983781  -0.7797693   -0.74267128  -0.72833267  -0.72202365
  -0.70990733  -0.69907384  -0.64965522  -0.62077735  -0.60049204
  -0.58861802  -0.56397251  -0.55077018  -0.52929357  -0.52405604
  -0.49343723  -0.48929804  -0.46203658  -0.45407579  -0.43970966
  -0.43542336  -0.4272231   -0.41180513  -0.40863728  -0.40322651
  -0.39219015  -0.38595765  -0.37499689  -0.36900185  -0.36126176
  -0.35876259  -0.34714942  -0.33576084  -0.32613702  -0.30426734
  -0.30049749  -0.27572586  -0.27298454  -0.25915602  -0.24379152
  -0.22750771  -0.21892459  -0.20937527  -0.20158267  -0.19794241
  -0.18532337  -0.17729762  -0.11145777  -0.02026      0.04658203
   0.05965879   0.08795948   0.10642363   0.11525297   0.13029806
   0.15745119   0.20589336   0.21425406   0.2264939    0.23595875
   0.25080423   0.25558841   0.28192735   0.30601719   0.308912
   0.31427369   0.3339829    0.34601943   0.35181775   0.36903652
   0.38306064   0.41047172   0.41272573   0.43259386   0.44336866
   0.44795925   0.46915281   0.5023511    0.51808041   0.52525892
   0.53980235   0.57789652   0.58923759   0.62882428   0.63619893
   0.64522482   0.68862201   0.69482019   0.73115464   0.73867517
   0.75575365   0.80906459   0.81882891   0.8521801    0.87466312
   0.92411625   0.97581121   1.02767643   1.52406864]
nelec by numeric integration = 146.000001562573
    CPU time for vxc     37.74 sec, wall time     15.64 sec
E1 = -4097.1744057960905  Ecoul = 1893.450627644216  Exc = -124.71080171911773
cycle= 10 E= -835.120139598783  delta_E= -7.51e-09  |g|= 0.00011  |ddm|= 0.000363
    CPU time for cycle= 10     38.12 sec, wall time     15.71 sec
  HOMO = -0.111458031224583  LUMO = -0.0202594491598384
  mo_energy =
[-10.06818925 -10.04726202 -10.04651125 -10.03029708 -10.02654368
 -10.02410341 -10.02232879 -10.01943503 -10.01934307 -10.01911268
 -10.01717793 -10.01714563 -10.01708334 -10.01157645 -10.00920537
 -10.00725519 -10.00634102 -10.00557628 -10.00499798 -10.00382188
 -10.0023163  -10.00157504  -0.85690505  -0.83857437  -0.82972531
  -0.79983922  -0.77976928  -0.74267086  -0.7283315   -0.72202166
  -0.70990613  -0.69907413  -0.64965205  -0.62077819  -0.60049172
  -0.58861648  -0.56397297  -0.55076905  -0.52929216  -0.5240568
  -0.49343655  -0.48929712  -0.46203693  -0.45407639  -0.43971104
  -0.4354233   -0.42722475  -0.41180628  -0.40863861  -0.40322564
  -0.39219019  -0.38595742  -0.37499779  -0.36900361  -0.36126357
  -0.35876559  -0.34714765  -0.33576288  -0.32614143  -0.30426697
  -0.30049807  -0.27572654  -0.27298776  -0.25915466  -0.24379246
  -0.22750977  -0.21892344  -0.20937782  -0.20158417  -0.19794211
  -0.18532341  -0.17729717  -0.11145803  -0.02025945   0.04658292
   0.05965916   0.0879596    0.1064224    0.11524967   0.1302972
   0.15745135   0.20589255   0.21425118   0.22649476   0.23595919
   0.25080324   0.25558673   0.28192344   0.30601408   0.30890801
   0.31427118   0.33398227   0.34601927   0.35181934   0.36903614
   0.3830622    0.41046796   0.41272609   0.43259117   0.44337114
   0.4479581    0.46915125   0.50235269   0.51807964   0.5252579
   0.53980593   0.57789554   0.58923619   0.62882425   0.6361996
   0.64522649   0.68862193   0.69482164   0.73115392   0.73867516
   0.75575345   0.80906852   0.81883329   0.85217995   0.87465988
   0.92411906   0.97580846   1.02767909   1.52406372]
nelec by numeric integration = 146.0000015625679
    CPU time for vxc     38.53 sec, wall time     15.79 sec
E1 = -4097.174522334103  Ecoul = 1893.45074542149  Exc = -124.71080296264086
cycle= 11 E= -835.120139603045  delta_E= -4.26e-09  |g|= 3.64e-05  |ddm|= 0.000175
    CPU time for cycle= 11     39.00 sec, wall time     15.86 sec
  HOMO = -0.111457438127464  LUMO = -0.0202588140597454
  mo_energy =
[-10.06818773 -10.04726128 -10.04651442 -10.0302982  -10.02654197
 -10.0241036  -10.02233091 -10.0194366  -10.01933634 -10.01911236
 -10.01717738 -10.01714539 -10.01708665 -10.01156808 -10.00920228
 -10.00725579 -10.00634005 -10.00557255 -10.00500234 -10.0038123
 -10.00231506 -10.00157304  -0.8569062   -0.83857268  -0.82972494
  -0.79983774  -0.77976902  -0.7426686   -0.7283312   -0.7220212
  -0.70990467  -0.69907402  -0.64965029  -0.62077829  -0.60049297
  -0.58861577  -0.56397235  -0.55076768  -0.52929206  -0.52405641
  -0.49343649  -0.48929658  -0.46203692  -0.45407646  -0.43970946
  -0.43542344  -0.42722349  -0.41180614  -0.40863787  -0.40322581
  -0.39218932  -0.38595741  -0.3749977   -0.36900234  -0.36126363
  -0.35876453  -0.3471467   -0.33576246  -0.32613967  -0.30426664
  -0.30049772  -0.27572536  -0.27298718  -0.25915375  -0.24379027
  -0.22750901  -0.21892304  -0.20937758  -0.20158384  -0.19794203
  -0.18532227  -0.17729687  -0.11145744  -0.02025881   0.04658337
   0.05965907   0.08796036   0.10642319   0.11525002   0.1302993
   0.15745169   0.20589397   0.2142531    0.22649466   0.23595969
   0.25080337   0.25558644   0.28192525   0.30601381   0.30890913
   0.31427106   0.33398339   0.34602085   0.35182034   0.36903603
   0.38306199   0.41046974   0.41272745   0.4325929    0.44337205
   0.44795643   0.46915257   0.50235257   0.5180786    0.52525766
   0.53980648   0.57789476   0.58923795   0.62882668   0.63619992
   0.6452277    0.68862087   0.69482143   0.73115619   0.73867514
   0.75575342   0.80906883   0.81883345   0.85217927   0.87466031
   0.92412178   0.97581169   1.02767888   1.52406438]
nelec by numeric integration = 146.00000156257263
    CPU time for vxc     38.17 sec, wall time     15.76 sec
E1 = -4097.174502170139  Ecoul = 1893.4507233329075  Exc = -124.71080103846634
cycle= 12 E= -835.120139603489  delta_E= -4.44e-10  |g|= 1.34e-05  |ddm|= 6.07e-05
    CPU time for cycle= 12     38.61 sec, wall time     15.83 sec
  HOMO = -0.111458217814944  LUMO = -0.020259001803186
  mo_energy =
[-10.06818928 -10.0472631  -10.04651397 -10.03029908 -10.02654382
 -10.02410391 -10.02233037 -10.01943603 -10.01933631 -10.01911452
 -10.01717643 -10.01714736 -10.01708655 -10.01156946 -10.00920099
 -10.00725433 -10.00633896 -10.00557334 -10.00500523 -10.00381641
 -10.00231645 -10.00156944  -0.85690681  -0.83857299  -0.82972562
  -0.79983838  -0.77976962  -0.74266878  -0.7283318   -0.72202139
  -0.70990467  -0.69907397  -0.64965018  -0.6207789   -0.60049354
  -0.58861542  -0.5639731   -0.55076731  -0.52929274  -0.52405689
  -0.49343692  -0.48929672  -0.46203753  -0.45407697  -0.43970964
  -0.435424    -0.42722323  -0.41180635  -0.40863814  -0.40322654
  -0.39218934  -0.38595767  -0.37499826  -0.36900216  -0.36126426
  -0.35876514  -0.34714675  -0.33576263  -0.32613971  -0.304267
  -0.3004985   -0.27572572  -0.27298775  -0.25915384  -0.24379064
  -0.22750963  -0.21892396  -0.20937781  -0.20158411  -0.19794228
  -0.18532254  -0.17729683  -0.11145822  -0.020259     0.04658356
   0.05965895   0.08795995   0.10642307   0.11524987   0.13029885
   0.15745138   0.20589353   0.21425225   0.22649387   0.2359594
   0.25080277   0.25558599   0.28192485   0.30601304   0.30890866
   0.3142701    0.33398275   0.34602123   0.35182044   0.36903531
   0.38306126   0.41046965   0.41272794   0.4325923    0.4433725
   0.44795601   0.46915294   0.50235184   0.5180781    0.52525705
   0.53980715   0.57789431   0.58923829   0.62882639   0.63619903
   0.64522835   0.68862039   0.69482111   0.73115693   0.738675
   0.75575355   0.80906765   0.8188338    0.85217903   0.87466004
   0.92412133   0.97581044   1.02767778   1.5240631 ]
nelec by numeric integration = 146.0000015625716
    CPU time for vxc     37.89 sec, wall time     15.68 sec
E1 = -4097.174558173256  Ecoul = 1893.4507810006407  Exc = -124.7108027031342
cycle= 13 E= -835.120139603541  delta_E= -5.18e-11  |g|= 7.3e-06  |ddm|= 3.49e-05
    CPU time for cycle= 13     38.43 sec, wall time     15.77 sec
  HOMO = -0.111457672350692  LUMO = -0.0202585546202566
  mo_energy =
[-10.06818769 -10.04726112 -10.04651246 -10.03029763 -10.02654217
 -10.02410334 -10.02232712 -10.01943512 -10.019337   -10.01911148
 -10.01717788 -10.01714561 -10.01708579 -10.01156943 -10.00920249
 -10.00725572 -10.0063402  -10.0055738  -10.00500179 -10.00381392
 -10.00231652 -10.00157553  -0.85690536  -0.83857291  -0.82972474
  -0.79983778  -0.77976878  -0.74266919  -0.72833128  -0.72202125
  -0.70990488  -0.69907367  -0.64965075  -0.62077788  -0.6004922
  -0.58861589  -0.56397234  -0.55076808  -0.52929208  -0.52405628
  -0.49343655  -0.48929659  -0.46203687  -0.45407629  -0.43970977
  -0.43542308  -0.42722357  -0.4118058   -0.40863792  -0.40322577
  -0.39218945  -0.38595734  -0.37499762  -0.36900249  -0.36126343
  -0.3587646   -0.34714685  -0.33576221  -0.32613987  -0.30426655
  -0.30049759  -0.27572553  -0.2729871   -0.25915402  -0.24379083
  -0.2275092   -0.21892324  -0.20937736  -0.20158368  -0.19794163
  -0.1853222   -0.17729685  -0.11145767  -0.02025855   0.0465835
   0.05965974   0.08796041   0.10642319   0.11525031   0.13029876
   0.15745175   0.20589387   0.21425314   0.22649511   0.2359604
   0.25080369   0.25558687   0.28192493   0.30601411   0.30890909
   0.31427126   0.33398317   0.34602064   0.35181982   0.36903615
   0.38306183   0.41046959   0.41272667   0.43259244   0.44337183
   0.44795698   0.46915242   0.50235264   0.51807906   0.52525786
   0.53980632   0.57789528   0.58923768   0.62882614   0.63619991
   0.64522748   0.68862148   0.69482212   0.731156     0.73867526
   0.75575375   0.80906843   0.81883337   0.85217966   0.87466052
   0.92412121   0.97581116   1.02767947   1.52406448]
nelec by numeric integration = 146.0000015625732
    CPU time for vxc     38.32 sec, wall time     15.82 sec
E1 = -4097.174464642609  Ecoul = 1893.450686642914  Exc = -124.71080187591707
Extra cycle  E= -835.120139603403  delta_E= 1.38e-10  |g|= 2.13e-05  |ddm|= 4.69e-05
    CPU time for scf_cycle    585.45 sec, wall time    238.66 sec
    CPU time for SCF    585.45 sec, wall time    238.66 sec
converged SCF energy = -835.120139603403
nelec by numeric integration = 146.0000015625732
    CPU time for vxc     37.60 sec, wall time     15.52 sec
 ** Mulliken pop  **
pop of  0 C 1s            1.99083
pop of  0 C 2s            1.15532
pop of  0 C 2px           0.96487
pop of  0 C 2py           0.94247
pop of  0 C 2pz           0.93494
pop of  1 C 1s            1.99079
pop of  1 C 2s            1.09251
pop of  1 C 2px           0.99673
pop of  1 C 2py           0.95191
pop of  1 C 2pz           0.97486
pop of  2 C 1s            1.99112
pop of  2 C 2s            1.14810
pop of  2 C 2px           0.99242
pop of  2 C 2py           0.96778
pop of  2 C 2pz           1.02430
pop of  3 C 1s            1.99114
pop of  3 C 2s            1.17132
pop of  3 C 2px           0.99027
pop of  3 C 2py           0.94456
pop of  3 C 2pz           0.97128
pop of  4 C 1s            1.99102
pop of  4 C 2s            1.17550
pop of  4 C 2px           0.98525
pop of  4 C 2py           0.95004
pop of  4 C 2pz           0.96189
pop of  5 C 1s            1.99141
pop of  5 C 2s            1.14641
pop of  5 C 2px           0.98875
pop of  5 C 2py           0.95915
pop of  5 C 2pz           0.97801
pop of  6 C 1s            1.99077
pop of  6 C 2s            1.15049
pop of  6 C 2px           0.99520
pop of  6 C 2py           0.98270
pop of  6 C 2pz           0.97778
pop of  7 C 1s            1.99091
pop of  7 C 2s            1.14221
pop of  7 C 2px           0.98903
pop of  7 C 2py           0.97373
pop of  7 C 2pz           0.97384
pop of  8 C 1s            1.99101
pop of  8 C 2s            1.16736
pop of  8 C 2px           0.95291
pop of  8 C 2py           0.95381
pop of  8 C 2pz           0.93172
pop of  9 C 1s            1.99079
pop of  9 C 2s            1.08343
pop of  9 C 2px           1.02106
pop of  9 C 2py           0.99045
pop of  9 C 2pz           0.94069
pop of  10 C 1s           1.99226
pop of  10 C 2s           1.18418
pop of  10 C 2px          1.02915
pop of  10 C 2py          0.94471
pop of  10 C 2pz          1.00434
pop of  11 C 1s           1.99116
pop of  11 C 2s           1.14492
pop of  11 C 2px          0.97902
pop of  11 C 2py          0.93291
pop of  11 C 2pz          0.98382
pop of  12 C 1s           1.99197
pop of  12 C 2s           1.23713
pop of  12 C 2px          0.93461
pop of  12 C 2py          0.87434
pop of  12 C 2pz          0.90034
pop of  13 C 1s           1.99012
pop of  13 C 2s           1.06233
pop of  13 C 2px          1.01361
pop of  13 C 2py          1.01289
pop of  13 C 2pz          0.97963
pop of  14 C 1s           1.99165
pop of  14 C 2s           1.07940
pop of  14 C 2px          1.01119
pop of  14 C 2py          1.00627
pop of  14 C 2pz          1.05582
pop of  15 C 1s           1.99059
pop of  15 C 2s           1.13352
pop of  15 C 2px          1.02046
pop of  15 C 2py          0.94203
pop of  15 C 2pz          0.99918
pop of  16 C 1s           1.99118
pop of  16 C 2s           1.10638
pop of  16 C 2px          0.97925
pop of  16 C 2py          0.96270
pop of  16 C 2pz          0.96466
pop of  17 C 1s           1.99152
pop of  17 C 2s           1.20437
pop of  17 C 2px          0.94350
pop of  17 C 2py          0.90187
pop of  17 C 2pz          0.92043
pop of  18 C 1s           1.99173
pop of  18 C 2s           1.18724
pop of  18 C 2px          0.94579
pop of  18 C 2py          0.95122
pop of  18 C 2pz          0.97220
pop of  19 C 1s           1.99385
pop of  19 C 2s           1.04979
pop of  19 C 2px          1.01211
pop of  19 C 2py          1.01595
pop of  19 C 2pz          1.04425
pop of  20 C 1s           1.99088
pop of  20 C 2s           1.15916
pop of  20 C 2px          1.03416
pop of  20 C 2py          0.99440
pop of  20 C 2pz          0.91133
pop of  21 C 1s           1.99384
pop of  21 C 2s           1.04424
pop of  21 C 2px          0.99802
pop of  21 C 2py          1.04175
pop of  21 C 2pz          0.99972
pop of  22 H 1s           0.88982
pop of  23 H 1s           0.92338
pop of  24 H 1s           0.92121
pop of  25 H 1s           0.93750
pop of  26 H 1s           0.90879
pop of  27 H 1s           0.92659
pop of  28 H 1s           0.88423
pop of  29 H 1s           0.95200
pop of  30 H 1s           0.87031
pop of  31 H 1s           0.90383
pop of  32 H 1s           0.92594
pop of  33 H 1s           0.89575
pop of  34 H 1s           0.90074
pop of  35 H 1s           0.94407
 ** Mulliken atomic charges  **
charge of    0C =      0.01157
charge of    1C =     -0.00679
charge of    2C =     -0.12372
charge of    3C =     -0.06856
charge of    4C =     -0.06371
charge of    5C =     -0.06373
charge of    6C =     -0.09694
charge of    7C =     -0.06972
charge of    8C =      0.00319
charge of    9C =     -0.02642
charge of   10C =     -0.15464
charge of   11C =     -0.03182
charge of   12C =      0.06161
charge of   13C =     -0.05858
charge of   14C =     -0.14433
charge of   15C =     -0.08577
charge of   16C =     -0.00418
charge of   17C =      0.03831
charge of   18C =     -0.04818
charge of   19C =     -0.11594
charge of   20C =     -0.08992
charge of   21C =     -0.07756
charge of   22H =      0.11018
charge of   23H =      0.07662
charge of   24H =      0.07879
charge of   25H =      0.06250
charge of   26H =      0.09121
charge of   27H =      0.07341
charge of   28H =      0.11577
charge of   29H =      0.04800
charge of   30H =      0.12969
charge of   31H =      0.09617
charge of   32H =      0.07406
charge of   33H =      0.10425
charge of   34H =      0.09926
charge of   35H =      0.05593
Dipole moment(X, Y, Z, Debye): -0.43785,  0.03830,  0.16799
nelec by numeric integration = 146.0000015625732
    CPU time for vxc     37.75 sec, wall time     15.69 sec
E1 = -4097.174464642609  Ecoul = 1893.4506866429144  Exc = -124.71080187591707
nelec by numeric integration = 146.0000015625732
    CPU time for vxc     37.78 sec, wall time     15.69 sec
E1 = -4097.174464642609  Ecoul = 1893.4506866429151  Exc = -124.71080187591706
