System: uname_result(system='Linux', node='cosmopc18', release='5.15.0-97-generic', version='#107-Ubuntu SMP Wed Feb 7 13:26:48 UTC 2024', machine='x86_64')  Threads 4
Python 3.11.8 (main, Feb 26 2024, 21:39:34) [GCC 11.2.0]
numpy 1.26.4  scipy 1.11.4
Date: Tue Apr  9 11:20:29 2024
PySCF version 2.3.0
PySCF path  /home/saade/miniconda3/envs/tutorial/lib/python3.11/site-packages/pyscf

[ENV] PYSCFAD_BACKEND torch
[CONFIG] conf_file None
[INPUT] verbose = 5
[INPUT] max_memory = 4000 
[INPUT] num. atoms = 36
[INPUT] num. electrons = 146
[INPUT] charge = 0
[INPUT] spin (= nelec alpha-beta = 2S) = 0
[INPUT] symmetry False subgroup None
[INPUT] Mole.unit = angstrom
[INPUT] Symbol           X                Y                Z      unit          X                Y                Z       unit  Magmom
[INPUT]  1 C     -0.054338000000   3.610553000000   0.586703000000 AA   -0.102683938157   6.822956328227   1.108707986461 Bohr   0.0
[INPUT]  2 C      0.031194000000   3.594086000000  -0.646755000000 AA    0.058948116730   6.791838208134  -1.222189819693 Bohr   0.0
[INPUT]  3 C      0.036250000000   4.880208000000   1.504484000000 AA    0.068502572015   9.222256550911   2.843062718790 Bohr   0.0
[INPUT]  4 C     -0.043422000000   2.598792000000   1.522157000000 AA   -0.082055687781   4.911005134711   2.876459848590 Bohr   0.0
[INPUT]  5 C      0.086723000000   4.910941000000  -1.555823000000 AA    0.163882718701   9.280333503898  -2.940079368299 Bohr   0.0
[INPUT]  6 C     -0.004356000000   2.493324000000  -1.282802000000 AA   -0.008231646999   4.711699499805  -2.424144452044 Bohr   0.0
[INPUT]  7 C     -0.134985000000   5.883735000000  -0.767033000000 AA   -0.255084680924  11.118647739518  -1.449482298504 Bohr   0.0
[INPUT]  8 C     -0.196840000000   6.140877000000   0.888816000000 AA   -0.371973690359  11.604575694641   1.679618815131 Bohr   0.0
[INPUT]  9 C      0.024242000000   1.212170000000   0.878647000000 AA    0.045810740712   2.290669316414   1.660402190171 Bohr   0.0
[INPUT] 10 C     -0.027042000000   1.235375000000  -0.857822000000 AA   -0.051101973860   2.334520411135  -1.621048643627 Bohr   0.0
[INPUT] 11 C     -0.033898000000   0.083642000000   1.287051000000 AA   -0.064057936171   0.158060472511   2.432173898348 Bohr   0.0
[INPUT] 12 C      0.064119000000  -0.087984000000  -1.399849000000 AA    0.121167349381  -0.166265663344  -2.645331225746 Bohr   0.0
[INPUT] 13 C      0.061375000000  -0.988576000000   0.611777000000 AA    0.115981940895  -1.868137893318   1.156090979308 Bohr   0.0
[INPUT] 14 C     -0.125357000000  -1.047360000000  -0.666356000000 AA   -0.236890397797  -1.979223553824  -1.259230341461 Bohr   0.0
[INPUT] 15 C     -0.033390000000  -2.598987000000   1.410544000000 AA   -0.063097955299  -4.911373631305   2.665541846649 Bohr   0.0
[INPUT] 16 C     -0.089403000000  -2.547262000000  -1.523042000000 AA   -0.168947184714  -4.813627547512  -2.878132256210 Bohr   0.0
[INPUT] 17 C      0.113685000000  -3.687688000000   0.486699000000 AA    0.214833514471  -6.968720352845   0.919727815100 Bohr   0.0
[INPUT] 18 C     -0.056725000000  -3.699152000000  -0.750662000000 AA   -0.107194714416  -6.990384173137  -1.418545592118 Bohr   0.0
[INPUT] 19 C     -0.037992000000  -4.903933000000   1.430048000000 AA   -0.071794474924  -9.267090303217   2.702399064982 Bohr   0.0
[INPUT] 20 C     -0.063855000000  -4.834079000000  -1.367954000000 AA   -0.120668461684  -9.135085374511  -2.585058411003 Bohr   0.0
[INPUT] 21 C     -0.007049000000  -6.265485000000   0.662123000000 AA   -0.013320679452 -11.840050687571   1.251231130775 Bohr   0.0
[INPUT] 22 C      0.008989000000  -6.152742000000  -0.739478000000 AA    0.016986748134 -11.626997295109  -1.397410895141 Bohr   0.0
[INPUT] 23 H      0.297340000000   5.090391000000   2.632884000000 AA    0.561891165878   9.619444856951   4.975429677749 Bohr   0.0
[INPUT] 24 H     -0.105628000000   2.443735000000   2.447857000000 AA   -0.199607991086   4.617989871014   4.625779322099 Bohr   0.0
[INPUT] 25 H     -0.096289000000   4.994891000000  -2.391694000000 AA   -0.181959838808   9.438976012055  -4.519646633766 Bohr   0.0
[INPUT] 26 H     -0.214200000000   2.384237000000  -2.458558000000 AA   -0.404779335882   4.505554946055  -4.646001281358 Bohr   0.0
[INPUT] 27 H      0.018411000000   6.943179000000  -1.346995000000 AA    0.034791747679  13.120706743832  -2.545451641159 Bohr   0.0
[INPUT] 28 H     -0.161837000000   7.017234000000   1.292781000000 AA   -0.305827606821  13.260650411986   2.443002029041 Bohr   0.0
[INPUT] 29 H     -0.143961000000   0.104650000000   2.353772000000 AA   -0.272046862619   0.197759838936   4.447984439670 Bohr   0.0
[INPUT] 30 H     -0.002147000000  -0.096076000000  -2.400514000000 AA   -0.004057241989  -0.181557327144  -4.536314018184 Bohr   0.0
[INPUT] 31 H     -0.088613000000  -2.479265000000   2.430551000000 AA   -0.167454301076  -4.685131840220   4.593075721788 Bohr   0.0
[INPUT] 32 H      0.023356000000  -2.445352000000  -2.328258000000 AA    0.044136443365  -4.621045558157  -4.399769967328 Bohr   0.0
[INPUT] 33 H     -0.134183000000  -5.057508000000   2.509715000000 AA   -0.253569120573  -9.557304992797   4.742674000713 Bohr   0.0
[INPUT] 34 H      0.028396000000  -4.787581000000  -2.607482000000 AA    0.053660663033  -9.047216889171  -4.927426854733 Bohr   0.0
[INPUT] 35 H      0.028550000000  -7.136752000000   1.122636000000 AA    0.053951680856 -13.486506698942   2.121474577577 Bohr   0.0
[INPUT] 36 H     -0.055022000000  -7.120945000000  -1.229410000000 AA   -0.103976510826 -13.456635798091  -2.323248194802 Bohr   0.0
[INPUT] ---------------- BASIS SET ---------------- 
[INPUT] l, kappa, [nprim/nctr], expnt,             c_1 c_2 ...
[INPUT] H
[INPUT] 0    0    [3    /1   ]  3.42525091        0.15432897
                                0.62391373        0.53532814
                                0.1688554         0.44463454
[INPUT] C
[INPUT] 0    0    [3    /1   ]  71.616837         0.15432897
                                13.045096         0.53532814
                                3.5305122         0.44463454
[INPUT] 0    0    [3    /1   ]  2.9412494         -0.09996723
                                0.6834831         0.39951283
                                0.2222899         0.70011547
[INPUT] 1    0    [3    /1   ]  2.9412494         0.15591627
                                0.6834831         0.60768372
                                0.2222899         0.39195739

nuclear repulsion = 1497.54852483605
number of shells = 80
number of NR pGTOs = 372
number of NR cGTOs = 124
basis = sto3g
ecp = {}
CPU time:     14448.75
atom C rad-grids = 99, ang-grids = [ 50  50  50  50  50  50  50  50  50  50  50  50  50  50  50  50  50  50
  50  50  50  50  50  50  50  50  50  50  50  50  50  86  86  86  86  86
  86  86  86  86  86  86  86 434 434 434 434 434 434 434 434 434 590 590
 590 590 590 590 590 590 590 590 590 590 590 590 590 590 590 590 590 590
 590 590 590 590 590 590 590 434 434 434 434 434 434 434 434 434 434 434
 434 434 434 434 434 434 434 434 434]
atom H rad-grids = 99, ang-grids = [ 50  50  50  50  50  50  50  50  50  50  50  50  50  50  50  50  50  50
  50  50  50  50  50  50  50  50  50  50  86  86  86  86  86  86  86 434
 434 434 434 434 434 434 434 590 590 590 590 590 590 590 590 590 590 590
 590 590 590 590 590 590 590 590 590 590 590 590 590 590 590 434 434 434
 434 434 434 434 434 434 434 434 434 434 434 434 434 434 434 434 434 434
 434 434 434 434 434 434 434 434 434]
tot_boxes 5270, boxes in each direction [ 8 29 15]
Padding 0 grids
tot grids = 1157832


******** <class 'pyscf.dft.rks.RKS'> ********
method = RKS
initial guess = minao
damping factor = 0
level_shift factor = 0
DIIS = <class 'pyscf.scf.diis.CDIIS'>
diis_start_cycle = 1
diis_space = 8
SCF conv_tol = 1e-10
SCF conv_tol_grad = None
SCF max_cycles = 50
direct_scf = True
direct_scf_tol = 1e-13
chkfile to save SCF result = /home/saade/mlelec/tutorials/tmpw7s1lna6
max_memory 4000 MB (current use 687 MB)
XC library pyscf.dft.libxc version 6.1.0
    S. Lehtola, C. Steigemann, M. J.T. Oliveira, and M. A.L. Marques.,  SoftwareX 7, 1–5 (2018)
XC functionals = b3lypg
    P. J. Stephens, F. J. Devlin, C. F. Chabalowski, and M. J. Frisch.,  J. Phys. Chem. 98, 11623 (1994)
radial grids: 
    Treutler-Ahlrichs [JCP 102, 346 (1995); DOI:10.1063/1.469408] (M4) radial grids
    
becke partition: Becke, JCP 88, 2547 (1988); DOI:10.1063/1.454033
pruning grids: <function nwchem_prune at 0x7f9db5616ca0>
grids dens level: 3
symmetrized grids: False
atomic radii adjust function: <function treutler_atomic_radii_adjust at 0x7f9db5617380>
User specified grid scheme (99, 590)
small_rho_cutoff = 1e-07
Set gradient conv threshold to 1e-05
Initial guess from minao.
nelec by numeric integration = 145.26357673875313
    CPU time for vxc     37.35 sec, wall time     15.62 sec
E1 = -4094.2690120983157  Ecoul = 1881.3024515126267  Exc = -126.21735450907317
init E= -841.635390258711
cond(S) = 22.900787127077628
    CPU time for initialize scf     47.11 sec, wall time     17.97 sec
  HOMO = -0.199453266355585  LUMO = -0.149031614333023
  mo_energy =
[-1.01595931e+01 -1.01478452e+01 -1.01386875e+01 -1.01378542e+01
 -1.01360826e+01 -1.01250324e+01 -1.01236431e+01 -1.01233284e+01
 -1.01230418e+01 -1.01204759e+01 -1.01152959e+01 -1.01126835e+01
 -1.01083097e+01 -1.00952772e+01 -1.00931869e+01 -1.00811456e+01
 -1.00808032e+01 -1.00801629e+01 -1.00796323e+01 -1.00767829e+01
 -1.00714856e+01 -1.00664860e+01 -1.12534067e+00 -1.08570873e+00
 -1.06817259e+00 -9.86820887e-01 -9.58478825e-01 -9.27235459e-01
 -9.13522175e-01 -9.00058500e-01 -8.66008537e-01 -8.48271416e-01
 -8.06561722e-01 -7.72024871e-01 -7.34920073e-01 -7.22557968e-01
 -7.08887210e-01 -6.91760845e-01 -6.64659917e-01 -6.42126587e-01
 -6.19717387e-01 -6.00441951e-01 -5.83419925e-01 -5.70823125e-01
 -5.47904425e-01 -5.41952214e-01 -5.29804312e-01 -5.18571302e-01
 -5.04988081e-01 -5.01462499e-01 -4.95032822e-01 -4.90110834e-01
 -4.88463327e-01 -4.67798607e-01 -4.53664871e-01 -4.48150498e-01
 -4.29595544e-01 -4.19508309e-01 -4.05286681e-01 -3.91343409e-01
 -3.77859876e-01 -3.72703331e-01 -3.66781232e-01 -3.48687532e-01
 -3.31794071e-01 -3.17044980e-01 -3.10174072e-01 -3.02920053e-01
 -2.94923531e-01 -2.93008102e-01 -2.73753473e-01 -2.48261461e-01
 -1.99453266e-01 -1.49031614e-01 -1.11685933e-01 -7.32987572e-02
 -5.29871780e-02 -4.08807923e-02 -5.04809491e-03  1.30271252e-02
  2.52823367e-02  4.04643763e-02  8.21141209e-02  9.82150143e-02
  1.12263954e-01  1.35498168e-01  1.37837233e-01  1.46691215e-01
  1.58999821e-01  1.82080884e-01  2.02385996e-01  2.08484516e-01
  2.17250794e-01  2.54779695e-01  2.60422359e-01  2.71663864e-01
  2.87135859e-01  2.93713376e-01  3.11796649e-01  3.36051888e-01
  3.54994067e-01  3.68790610e-01  3.94981175e-01  3.97806248e-01
  4.23109540e-01  4.30608122e-01  4.51835684e-01  4.78576185e-01
  5.21255128e-01  5.51864309e-01  5.72005304e-01  5.77172056e-01
  5.86294958e-01  6.14833800e-01  6.44424576e-01  6.63642556e-01
  6.77838467e-01  6.82720596e-01  7.37957209e-01  7.43797306e-01
  7.73871898e-01  8.13538819e-01  8.42435401e-01  8.52963958e-01]
nelec by numeric integration = 145.99999750434984
    CPU time for vxc     38.69 sec, wall time     15.86 sec
E1 = -4109.695101440495  Ecoul = 1901.6315302900405  Exc = -124.86007761596858
cycle= 1 E= -835.375123930372  delta_E= 6.26  |g|= 0.405  |ddm|= 9.32
    CPU time for cycle= 1     38.98 sec, wall time     15.91 sec
  HOMO = -0.0980716022558842  LUMO = 0.025468210411762
  mo_energy =
[-10.14057738 -10.10679739 -10.05419015 -10.0480585  -10.02505672
 -10.0227934  -10.0134679  -10.00677432 -10.00587308  -9.99278275
  -9.97232368  -9.96689925  -9.96435446  -9.95536394  -9.94738057
  -9.94307462  -9.94259073  -9.94070524  -9.93630491  -9.92936802
  -9.91736318  -9.79043564  -0.83927055  -0.8345066   -0.80053596
  -0.74613244  -0.74070779  -0.73679128  -0.72220207  -0.71051803
  -0.67421912  -0.67162905  -0.64748422  -0.58961258  -0.58541296
  -0.5771877   -0.56734268  -0.55191744  -0.52787795  -0.50884635
  -0.49869833  -0.47760446  -0.4646301   -0.45843286  -0.44172507
  -0.43643331  -0.41432448  -0.40689395  -0.39833042  -0.37943119
  -0.37650004  -0.36148286  -0.35391822  -0.34529332  -0.34215088
  -0.33464575  -0.32080213  -0.30825406  -0.30032924  -0.28705986
  -0.26811542  -0.2556186   -0.2473898   -0.23509907  -0.22648167
  -0.2221936   -0.20029356  -0.19285496  -0.1820575   -0.16554259
  -0.14769999  -0.13202708  -0.0980716    0.02546821   0.04547086
   0.07012258   0.0792788    0.11414504   0.14367832   0.17339826
   0.19149517   0.22363982   0.23388648   0.25328729   0.26545669
   0.2837771    0.29832373   0.31850952   0.3261351    0.32864966
   0.35775642   0.36187042   0.37838504   0.3843885    0.38514719
   0.39844053   0.42657669   0.4419575    0.45970732   0.46177168
   0.50228778   0.51073778   0.52550198   0.54846195   0.55861934
   0.57534147   0.60787166   0.61839146   0.67374581   0.68400799
   0.72213112   0.73528922   0.74626054   0.8206901    0.82643154
   0.83981124   0.86227467   0.88335745   0.91228946   0.92408469
   0.96415599   1.01289221   1.05951903   1.08130869]
nelec by numeric integration = 145.9999976962885
    CPU time for vxc     38.61 sec, wall time     15.83 sec
E1 = -4103.515915389928  Ecoul = 1895.8450738858628  Exc = -124.78719810432844
cycle= 2 E= -834.909514772342  delta_E= 0.466  |g|= 1.13  |ddm|=  2.4
    CPU time for cycle= 2     39.01 sec, wall time     15.90 sec
  HOMO = -0.0905320466866893  LUMO = -0.00806993631500333
  mo_energy =
[-1.00389820e+01 -1.00343302e+01 -1.00317038e+01 -1.00181314e+01
 -1.00092119e+01 -1.00045951e+01 -1.00032167e+01 -1.00010787e+01
 -9.99843489e+00 -9.99665930e+00 -9.99163954e+00 -9.99117830e+00
 -9.99031632e+00 -9.98856191e+00 -9.98852601e+00 -9.98418123e+00
 -9.98195830e+00 -9.98081802e+00 -9.97756808e+00 -9.96984833e+00
 -9.96576478e+00 -9.96082944e+00 -8.50919608e-01 -8.40936813e-01
 -8.24168244e-01 -7.55560535e-01 -7.47012720e-01 -7.32435562e-01
 -7.22757042e-01 -7.13542092e-01 -6.83528862e-01 -6.73794306e-01
 -6.50061079e-01 -6.11883040e-01 -5.92212856e-01 -5.81377129e-01
 -5.73563531e-01 -5.56736979e-01 -5.32248541e-01 -5.16375979e-01
 -5.06022344e-01 -4.79110977e-01 -4.70927317e-01 -4.54676651e-01
 -4.40054662e-01 -4.34186006e-01 -4.23270505e-01 -4.12904452e-01
 -4.03018412e-01 -3.99084828e-01 -3.96393372e-01 -3.84313433e-01
 -3.63367580e-01 -3.55329374e-01 -3.45745448e-01 -3.44715235e-01
 -3.26856123e-01 -3.17279615e-01 -3.13007318e-01 -2.91374205e-01
 -2.80182337e-01 -2.74467196e-01 -2.55651588e-01 -2.39999208e-01
 -2.30135707e-01 -2.21836037e-01 -2.06233683e-01 -2.00849375e-01
 -1.94439234e-01 -1.83409124e-01 -1.64739854e-01 -1.33816697e-01
 -9.05320467e-02 -8.06993632e-03  4.20713754e-02  7.18463246e-02
  8.60334439e-02  1.08311728e-01  1.33306210e-01  1.62874904e-01
  1.96086713e-01  2.10921403e-01  2.33726810e-01  2.56350455e-01
  2.66407102e-01  2.77935929e-01  2.82322100e-01  2.99478083e-01
  3.16752660e-01  3.25622517e-01  3.33688594e-01  3.60406992e-01
  3.73031920e-01  3.86143921e-01  4.02300956e-01  4.12043555e-01
  4.24307599e-01  4.38752541e-01  4.69365596e-01  4.77897045e-01
  4.84760182e-01  5.21067896e-01  5.25057920e-01  5.56179729e-01
  5.59377953e-01  5.79586447e-01  5.92308235e-01  6.10016265e-01
  6.67901148e-01  6.80930895e-01  7.01128495e-01  7.20203461e-01
  7.38293246e-01  7.67904830e-01  8.10841712e-01  8.16532517e-01
  8.38030688e-01  8.47710812e-01  8.89556313e-01  9.03866836e-01
  9.35432125e-01  9.64359478e-01  1.01293002e+00  1.04161091e+00]
nelec by numeric integration = 145.99999755194543
    CPU time for vxc     37.80 sec, wall time     15.63 sec
E1 = -4105.333407483504  Ecoul = 1897.0847876497357  Exc = -124.72846931649886
cycle= 3 E= -835.428564314216  delta_E= -0.519  |g|= 0.209  |ddm|= 2.07
    CPU time for cycle= 3     38.39 sec, wall time     15.73 sec
  HOMO = -0.100230976218277  LUMO = -0.0204235541258334
  mo_energy =
[-10.0417984  -10.03984288 -10.03772516 -10.03706215 -10.03689349
 -10.03260647 -10.02836011 -10.02603193 -10.01947007 -10.01774186
 -10.01478265 -10.01360156 -10.00823362 -10.00659928 -10.0016098
 -10.00090231 -10.00004556  -9.99962665  -9.99752068  -9.99204691
  -9.99037205  -9.98933013  -0.87543691  -0.85058033  -0.8421849
  -0.78006842  -0.7607995   -0.73783517  -0.73086782  -0.72641352
  -0.69705871  -0.68313223  -0.65039367  -0.62891287  -0.60708089
  -0.59066735  -0.58309562  -0.56488595  -0.54449224  -0.52950777
  -0.51508271  -0.48889073  -0.47974316  -0.46854441  -0.44972716
  -0.44248999  -0.4388738   -0.41980007  -0.41046214  -0.40779638
  -0.40243555  -0.40060834  -0.38395054  -0.36513453  -0.35632859
  -0.35445354  -0.34347547  -0.32938799  -0.31901684  -0.29863323
  -0.28641081  -0.28535321  -0.27558871  -0.25318325  -0.24033073
  -0.22910189  -0.22438775  -0.21460033  -0.20718039  -0.20147515
  -0.17727201  -0.15086252  -0.10023098  -0.02042355   0.02403403
   0.06283972   0.07491297   0.0964573    0.12735077   0.15202957
   0.17326195   0.1846802    0.22155608   0.24174058   0.25566349
   0.27075063   0.27569584   0.29274631   0.30073194   0.32381719
   0.32575731   0.3388392    0.36123423   0.38129523   0.39205273
   0.40511641   0.41856384   0.4234068    0.46390017   0.46593067
   0.47374316   0.50922027   0.52019397   0.53928811   0.56030282
   0.56692966   0.58279283   0.60755218   0.65405238   0.68223099
   0.69899519   0.7053257    0.72470994   0.75918724   0.78749798
   0.80477291   0.8170688    0.82363695   0.88012485   0.88655058
   0.92033517   0.95537141   0.99270261   1.00268499]
nelec by numeric integration = 145.999997587258
    CPU time for vxc     38.37 sec, wall time     15.82 sec
E1 = -4106.455111725121  Ecoul = 1898.2153675172992  Exc = -124.75012349114614
cycle= 4 E= -835.441342862917  delta_E= -0.0128  |g|= 0.112  |ddm|= 0.496
    CPU time for cycle= 4     38.94 sec, wall time     15.90 sec
  HOMO = -0.104023350086979  LUMO = -0.0209575451237559
  mo_energy =
[-10.04930558 -10.04653054 -10.04182456 -10.04166437 -10.02409313
 -10.02313307 -10.01633198 -10.01528454 -10.01470988 -10.01434072
 -10.01379055 -10.01363363 -10.01316239 -10.01283997 -10.00707131
 -10.00704832 -10.0062053  -10.00591007 -10.00507877 -10.00074824
 -10.00062379  -9.99706223  -0.87005146  -0.85340225  -0.84204651
  -0.77635405  -0.76192451  -0.7420047   -0.73300533  -0.72573537
  -0.6965899   -0.68752076  -0.6544094   -0.62822102  -0.60443664
  -0.5910248   -0.58492063  -0.56675865  -0.54266471  -0.52870269
  -0.51630613  -0.49097946  -0.4788563   -0.46973256  -0.45018754
  -0.44246359  -0.43795084  -0.42119085  -0.41204607  -0.40992675
  -0.40435488  -0.40052835  -0.38157183  -0.36660674  -0.35819355
  -0.3542388   -0.34272686  -0.33087045  -0.3197853   -0.298856
  -0.29172049  -0.28592049  -0.27503533  -0.25495475  -0.24278424
  -0.22992031  -0.22317927  -0.21735424  -0.20788575  -0.20105311
  -0.17932842  -0.15284237  -0.10402335  -0.02095755   0.02387549
   0.05968264   0.07438875   0.09340652   0.12452133   0.14944284
   0.17558372   0.19045555   0.22053215   0.24089341   0.25612737
   0.26775916   0.27067896   0.2914076    0.30254524   0.32286429
   0.32511456   0.33924243   0.35865827   0.37796852   0.39187825
   0.40552293   0.41848778   0.42307157   0.46121612   0.46582284
   0.4732138    0.50534288   0.51862567   0.53945666   0.55428144
   0.56718477   0.58314539   0.60495028   0.6546982    0.67710197
   0.69717159   0.70358578   0.72013318   0.75859596   0.79220371
   0.80472327   0.8200003    0.82826653   0.87938924   0.8835411
   0.92123496   0.95087459   0.99436064   1.01112396]
nelec by numeric integration = 145.99999757538697
    CPU time for vxc     37.75 sec, wall time     15.58 sec
E1 = -4106.395210203713  Ecoul = 1898.1544674900335  Exc = -124.75311401381245
cycle= 5 E= -835.445331891441  delta_E= -0.00399  |g|= 0.0408  |ddm|= 0.203
    CPU time for cycle= 5     38.24 sec, wall time     15.65 sec
  HOMO = -0.103717702022518  LUMO = -0.0191992409324298
  mo_energy =
[-10.04696783 -10.04422493 -10.04179283 -10.03627032 -10.02579458
 -10.02036469 -10.01753686 -10.01568268 -10.01166162 -10.01031002
 -10.0100042  -10.00996754 -10.00987741 -10.00795115 -10.00772822
 -10.00722014 -10.00656311 -10.00508444 -10.00243842  -9.99894929
  -9.99824193  -9.9965805   -0.86926247  -0.85175645  -0.84096879
  -0.77474703  -0.7602047   -0.7398269   -0.73235169  -0.72529852
  -0.69567082  -0.68535642  -0.65326491  -0.62679704  -0.60455377
  -0.59000486  -0.58360964  -0.56502563  -0.54227084  -0.52836725
  -0.51470188  -0.4890891   -0.47787195  -0.46832278  -0.44895511
  -0.4421836   -0.43715648  -0.42030764  -0.4099004   -0.40895473
  -0.40405838  -0.39994297  -0.38027037  -0.36555648  -0.35657634
  -0.35406317  -0.34198261  -0.32942361  -0.31956791  -0.29876744
  -0.28915038  -0.28556633  -0.27307966  -0.25348237  -0.24144898
  -0.22992987  -0.22313684  -0.21531635  -0.20744417  -0.1995432
  -0.17824126  -0.15064465  -0.1037177   -0.01919924   0.02598825
   0.06104906   0.07491197   0.09555168   0.12479254   0.15078451
   0.17684799   0.19030852   0.22260358   0.24287069   0.2570605
   0.26928318   0.27180274   0.29176911   0.30336726   0.3229056
   0.3261579    0.34086755   0.36160045   0.37927031   0.39279942
   0.40594208   0.42059629   0.42292325   0.463274     0.46653521
   0.47366749   0.5088022    0.51891991   0.54127803   0.55585759
   0.56717399   0.58331811   0.60495013   0.65490875   0.67784475
   0.6970609    0.70490387   0.72444421   0.7595164    0.79240986
   0.8062201    0.82079268   0.82810092   0.87951005   0.88715911
   0.92201453   0.95368734   0.99512852   1.01256457]
nelec by numeric integration = 145.99999757652608
    CPU time for vxc     38.26 sec, wall time     15.74 sec
E1 = -4106.313558510181  Ecoul = 1898.0694535085113  Exc = -124.75018728089206
cycle= 6 E= -835.445767446511  delta_E= -0.000436  |g|= 0.0205  |ddm|= 0.0751
    CPU time for cycle= 6     38.71 sec, wall time     15.81 sec
  HOMO = -0.103506835397138  LUMO = -0.0188447774044328
  mo_energy =
[-10.04555204 -10.04460426 -10.04121216 -10.03713354 -10.02512769
 -10.01991603 -10.0155062  -10.01357221 -10.01184856 -10.01180474
 -10.01130077 -10.0111385  -10.00883814 -10.0085949  -10.00739594
 -10.00621984 -10.00602262 -10.00350131 -10.00063993 -10.00000285
  -9.99921231  -9.99501212  -0.8692193   -0.85156047  -0.8408795
  -0.77504882  -0.76005473  -0.73975764  -0.73179264  -0.72492361
  -0.69533467  -0.68533205  -0.65323305  -0.62675724  -0.60404038
  -0.58982932  -0.58337418  -0.56509716  -0.54211775  -0.52815852
  -0.5147586   -0.48900532  -0.47792026  -0.46826247  -0.44892423
  -0.44181901  -0.43693915  -0.42005366  -0.41006791  -0.40864966
  -0.40357781  -0.39983279  -0.38030032  -0.36541667  -0.35664887
  -0.35362023  -0.34183188  -0.32935945  -0.31915992  -0.29832882
  -0.28923055  -0.28530494  -0.27327939  -0.25325181  -0.24124022
  -0.22915656  -0.22267408  -0.21535089  -0.20711438  -0.19973244
  -0.17785278  -0.15079264  -0.10350684  -0.01884478   0.02589778
   0.06139545   0.07542189   0.09553374   0.12555768   0.15116474
   0.17689359   0.19065005   0.22233272   0.24262402   0.25712921
   0.26994406   0.27217296   0.29218511   0.30349504   0.32307723
   0.32605866   0.34064736   0.3611923    0.37935047   0.39336905
   0.40649025   0.4204107    0.42317805   0.46327663   0.46682048
   0.47416272   0.50831812   0.51952202   0.54115171   0.55616412
   0.56750494   0.58388285   0.60569342   0.6554956    0.67862336
   0.69776736   0.70543218   0.72380963   0.75957467   0.79255359
   0.80620263   0.8207865    0.82824825   0.8800097    0.8867608
   0.92217711   0.95341184   0.99538106   1.0117053 ]
nelec by numeric integration = 145.99999757899076
    CPU time for vxc     37.67 sec, wall time     15.63 sec
E1 = -4106.321017385901  Ecoul = 1898.0762130293142  Exc = -124.74961294887005
cycle= 7 E= -835.445892469405  delta_E= -0.000125  |g|= 0.0086  |ddm|= 0.0246
    CPU time for cycle= 7     38.17 sec, wall time     15.70 sec
  HOMO = -0.103418364805407  LUMO = -0.018735208081726
  mo_energy =
[-10.0450748  -10.04439852 -10.04128122 -10.03746066 -10.02519871
 -10.0192557  -10.01500622 -10.01371521 -10.01238593 -10.0116313
 -10.01151107 -10.01021903 -10.0086924  -10.00805304 -10.00740711
 -10.00676072 -10.005809   -10.00376372 -10.0004658  -10.00025294
  -9.999297    -9.99500599  -0.86919615  -0.85152246  -0.8408472
  -0.77505884  -0.76018516  -0.73970913  -0.7317016   -0.7247434
  -0.6953288   -0.68526611  -0.65328194  -0.62665468  -0.60389993
  -0.58973555  -0.58336212  -0.56510223  -0.54204909  -0.52812086
  -0.51478404  -0.48903271  -0.47789653  -0.46825013  -0.44882843
  -0.44170831  -0.43694157  -0.42001974  -0.41006009  -0.40859747
  -0.40356426  -0.39979402  -0.38028902  -0.3653997   -0.35665826
  -0.35344233  -0.34177165  -0.32930194  -0.3190661   -0.29828136
  -0.28913728  -0.28529416  -0.27329353  -0.25336068  -0.24122984
  -0.22904662  -0.22248783  -0.21530178  -0.20695828  -0.19975061
  -0.17781847  -0.15073224  -0.10341836  -0.01873521   0.02598057
   0.06147394   0.07563261   0.09558012   0.12563127   0.15109705
   0.1769145    0.19082375   0.22234719   0.24268034   0.25718614
   0.26990944   0.27218443   0.29227895   0.30357498   0.32317888
   0.32611499   0.34066649   0.36121811   0.37922683   0.39358848
   0.4067019    0.42040525   0.42325039   0.46339744   0.46678788
   0.47428776   0.50837479   0.51968552   0.5411436    0.55640059
   0.56752469   0.58399434   0.60577359   0.65562562   0.67862652
   0.69783533   0.70532921   0.72384055   0.75956289   0.79255005
   0.8060361    0.82075372   0.82828287   0.88011288   0.8866274
   0.92219638   0.9533391    0.99530951   1.01176929]
nelec by numeric integration = 145.99999757794376
    CPU time for vxc     37.68 sec, wall time     15.71 sec
E1 = -4106.3156029393995  Ecoul = 1898.0707442327628  Exc = -124.74957590494355
cycle= 8 E= -835.445909775529  delta_E= -1.73e-05  |g|= 0.00519  |ddm|= 0.00666
    CPU time for cycle= 8     38.18 sec, wall time     15.78 sec
  HOMO = -0.103479006501259  LUMO = -0.0187743158373639
  mo_energy =
[-10.04519173 -10.04435933 -10.04163142 -10.03724786 -10.02546555
 -10.01938266 -10.01461847 -10.01406422 -10.01217583 -10.01173979
 -10.01150728 -10.01049645 -10.00899331 -10.00772517 -10.00728084
 -10.00665703 -10.00589161 -10.00371476 -10.00073642 -10.00029413
  -9.99905928  -9.99495468  -0.86926056  -0.85158782  -0.84090314
  -0.77511258  -0.76010232  -0.73973597  -0.73173265  -0.72476026
  -0.69533081  -0.68525213  -0.65347086  -0.6266222   -0.60389446
  -0.58975396  -0.58337581  -0.5650648   -0.54207431  -0.52815996
  -0.51473782  -0.48905551  -0.47796216  -0.46826681  -0.44880973
  -0.44170117  -0.43698094  -0.42005408  -0.41003497  -0.4086193
  -0.40357983  -0.39987012  -0.38031775  -0.36544045  -0.35664617
  -0.3534391   -0.3418192   -0.3292755   -0.31911271  -0.29831423
  -0.28912296  -0.28541693  -0.27332697  -0.25329258  -0.24119407
  -0.22907393  -0.22248156  -0.2152894   -0.20696527  -0.199718
  -0.17780289  -0.15073395  -0.10347901  -0.01877432   0.02596836
   0.06149086   0.07562811   0.09558267   0.1256036    0.15114443
   0.17687638   0.19080194   0.22241166   0.24264685   0.25714774
   0.26995204   0.27220349   0.29217744   0.3035211    0.32310751
   0.3261144    0.34066337   0.36125109   0.37930769   0.39367915
   0.40677951   0.42043504   0.42321641   0.46340344   0.46676355
   0.4743064    0.50837642   0.51970486   0.54112888   0.55637355
   0.56743585   0.58394198   0.60572166   0.65557374   0.67868585
   0.6977878    0.70533693   0.72382976   0.75939303   0.79252065
   0.80612798   0.82075005   0.82816972   0.87995988   0.88671696
   0.92206123   0.95328417   0.99517847   1.01176067]
nelec by numeric integration = 145.99999757766395
    CPU time for vxc     38.18 sec, wall time     15.71 sec
E1 = -4106.3222653312605  Ecoul = 1898.0774837170197  Exc = -124.74966196133096
cycle= 9 E= -835.44591873952  delta_E= -8.96e-06  |g|= 0.00159  |ddm|= 0.00593
    CPU time for cycle= 9     38.57 sec, wall time     15.78 sec
  HOMO = -0.103515734735847  LUMO = -0.0187855170978156
  mo_energy =
[-10.04516136 -10.0444648  -10.04159011 -10.03734759 -10.02529531
 -10.01932655 -10.01442745 -10.01391502 -10.01222844 -10.01163776
 -10.01134912 -10.01045353 -10.00904874 -10.00783786 -10.00738567
 -10.00658151 -10.00595349 -10.00372328 -10.00104237 -10.00040659
  -9.99932402  -9.99499666  -0.86922203  -0.8516153   -0.84090233
  -0.77507119  -0.76012685  -0.73976415  -0.73174217  -0.72475039
  -0.69533464  -0.68527132  -0.65354191  -0.62660156  -0.60385176
  -0.58975889  -0.58338799  -0.56508407  -0.54205395  -0.52815768
  -0.51477112  -0.48903973  -0.47797587  -0.46827851  -0.44880948
  -0.44167607  -0.43695176  -0.42006645  -0.41004043  -0.40863566
  -0.40358532  -0.39986216  -0.38030581  -0.36546227  -0.35666395
  -0.35343318  -0.34181056  -0.32929     -0.31912891  -0.29831885
  -0.2891425   -0.28543481  -0.27331015  -0.25331536  -0.2412181
  -0.22908815  -0.22246317  -0.21529973  -0.20697006  -0.19973036
  -0.17783541  -0.15072917  -0.10351573  -0.01878552   0.02598527
   0.06145415   0.07562138   0.09557245   0.12558287   0.15111891
   0.17690466   0.1908461    0.22238217   0.24263808   0.25713761
   0.26991057   0.2721744    0.2921663    0.30352591   0.32309387
   0.32611882   0.34067349   0.36125223   0.37929801   0.39368548
   0.40679821   0.42041707   0.423208     0.46338051   0.46678675
   0.47431276   0.508393     0.51969189   0.54115837   0.55633797
   0.5674716    0.58395686   0.60569388   0.65559408   0.67861709
   0.69777225   0.70533013   0.72384698   0.75937467   0.79253822
   0.80610379   0.82075636   0.82820359   0.8799572    0.88667316
   0.92206704   0.95321591   0.99519657   1.01179828]
nelec by numeric integration = 145.99999757756834
    CPU time for vxc     37.84 sec, wall time     15.68 sec
E1 = -4106.322215774415  Ecoul = 1898.0774730752669  Exc = -124.74970172222037
cycle= 10 E= -835.445919585317  delta_E= -8.46e-07  |g|= 0.0005  |ddm|= 0.00267
    CPU time for cycle= 10     38.26 sec, wall time     15.75 sec
  HOMO = -0.103472258286917  LUMO = -0.0187585434685945
  mo_energy =
[-10.04509026 -10.04440676 -10.04156102 -10.0373296  -10.02530121
 -10.0192692  -10.01440145 -10.01387801 -10.01221317 -10.01166504
 -10.01133513 -10.01046253 -10.00906124 -10.00769687 -10.00732094
 -10.00664992 -10.00590646 -10.00372994 -10.00095452 -10.00037032
  -9.99919194  -9.99500355  -0.86920088  -0.85158685  -0.84087698
  -0.77505881  -0.76011786  -0.73974657  -0.73172337  -0.72471782
  -0.69531442  -0.68525272  -0.6535113   -0.62658343  -0.60383374
  -0.58973082  -0.58336725  -0.56507433  -0.54204056  -0.52814205
  -0.51475077  -0.48903193  -0.4779512   -0.46826022  -0.44879475
  -0.44166468  -0.43694015  -0.42004957  -0.41002957  -0.40861878
  -0.40356985  -0.39984549  -0.38028717  -0.3654421   -0.3566546
  -0.35340161  -0.34178998  -0.32927459  -0.3191074   -0.29830456
  -0.28912842  -0.28541619  -0.27329785  -0.25330589  -0.24120319
  -0.22906577  -0.22243451  -0.21528328  -0.20693432  -0.19972015
  -0.17780974  -0.1507125   -0.10347226  -0.01875854   0.02600146
   0.06148069   0.07565829   0.09558506   0.12560409   0.15113197
   0.17692066   0.1908717    0.22239491   0.24265203   0.25716148
   0.26993623   0.27219939   0.29219352   0.30355071   0.3231091
   0.32612076   0.34068712   0.36125512   0.3792835    0.39372095
   0.40682873   0.4204254    0.42321974   0.46339853   0.46679808
   0.47433599   0.50839888   0.51972361   0.54116543   0.55636212
   0.56748337   0.58398255   0.60571698   0.65562065   0.6786526
   0.69778813   0.70534653   0.72385086   0.75939541   0.79255896
   0.80610863   0.82077308   0.82822272   0.87999231   0.88669129
   0.92209644   0.95324463   0.99521959   1.01181795]
nelec by numeric integration = 145.9999975775614
    CPU time for vxc     37.63 sec, wall time     15.58 sec
E1 = -4106.320836072544  Ecoul = 1898.0760470482694  Exc = -124.7496554629921
cycle= 11 E= -835.445919651215  delta_E= -6.59e-08  |g|= 0.000225  |ddm|= 0.000854
    CPU time for cycle= 11     38.02 sec, wall time     15.65 sec
  HOMO = -0.103472413916495  LUMO = -0.0187589520233416
  mo_energy =
[-10.04510912 -10.04439385 -10.04157047 -10.03731409 -10.02531988
 -10.01927122 -10.01438877 -10.01390624 -10.01220312 -10.01165257
 -10.01133925 -10.01043968 -10.00903082 -10.00773442 -10.0073166
 -10.00663992 -10.0058914  -10.00371622 -10.0009597  -10.0003448
  -9.9991897   -9.9949664   -0.86920165  -0.85158382  -0.84087507
  -0.77505963  -0.76011214  -0.73973952  -0.73171609  -0.72471992
  -0.69531161  -0.68524786  -0.65351221  -0.62658088  -0.60383353
  -0.589732    -0.5833651   -0.56506912  -0.54203886  -0.52813969
  -0.51474701  -0.48903067  -0.47795462  -0.46825714  -0.44879127
  -0.44166266  -0.43694144  -0.42004667  -0.41002583  -0.40861542
  -0.40356704  -0.39984439  -0.38028522  -0.36543947  -0.35664952
  -0.35340522  -0.34178894  -0.329269    -0.31910533  -0.29830151
  -0.28912083  -0.28541552  -0.27329579  -0.25330084  -0.24119815
  -0.22905866  -0.22243365  -0.21527887  -0.20693547  -0.19971394
  -0.17780441  -0.15070831  -0.10347241  -0.01875895   0.02600391
   0.06148694   0.07565615   0.09559128   0.12561195   0.15113726
   0.17692138   0.1908706    0.22240232   0.24265783   0.25716337
   0.26993828   0.2722007    0.29219305   0.30355133   0.32310887
   0.32612502   0.34069111   0.36126187   0.37928795   0.39371986
   0.40682719   0.42043371   0.42322625   0.46340494   0.46679764
   0.47433751   0.50840393   0.51972504   0.54116706   0.556369
   0.56747772   0.58398064   0.60572446   0.65562049   0.67865652
   0.69779633   0.70535013   0.72385694   0.75939593   0.79255851
   0.80611267   0.82077502   0.82822248   0.87998936   0.88670086
   0.92209301   0.95324921   0.99521524   1.01182175]
nelec by numeric integration = 145.99999757755648
    CPU time for vxc     37.94 sec, wall time     15.68 sec
E1 = -4106.320686577421  Ecoul = 1898.0758883078047  Exc = -124.74964623278237
cycle= 12 E= -835.445919666347  delta_E= -1.51e-08  |g|= 7.63e-05  |ddm|= 0.000315
    CPU time for cycle= 12     38.41 sec, wall time     15.76 sec
  HOMO = -0.103469222381029  LUMO = -0.0187575535661686
  mo_energy =
[-10.04511315 -10.04440628 -10.04156959 -10.03731813 -10.0253086
 -10.01926402 -10.01439481 -10.01390224 -10.01219965 -10.01165984
 -10.01134282 -10.01044064 -10.00902478 -10.00772779 -10.0073172
 -10.00662995 -10.00589705 -10.00370655 -10.00094543 -10.00034281
  -9.99919347  -9.99496863  -0.86919911  -0.85158388  -0.84087455
  -0.77505771  -0.76011031  -0.73973999  -0.73171725  -0.7247191
  -0.69531011  -0.68524899  -0.6535074   -0.62658138  -0.60383363
  -0.58973148  -0.58336478  -0.56506914  -0.54203826  -0.52813855
  -0.51474796  -0.48903005  -0.47795211  -0.46825657  -0.44879196
  -0.44166339  -0.4369401   -0.42004595  -0.41002611  -0.40861546
  -0.40356648  -0.39984315  -0.38028377  -0.36543842  -0.35664889
  -0.35340478  -0.34178795  -0.32926898  -0.31910387  -0.2983002
  -0.28912223  -0.28541195  -0.27329423  -0.25329899  -0.24119737
  -0.22905931  -0.22243304  -0.21527842  -0.206934    -0.19971216
  -0.17780355  -0.15070821  -0.10346922  -0.01875755   0.02600428
   0.06148703   0.07565703   0.09559157   0.12561125   0.1511391
   0.17692362   0.19087302   0.22240167   0.24265958   0.25716403
   0.26993928   0.27220185   0.29219455   0.30355474   0.32311054
   0.32612592   0.34069204   0.36126152   0.37929019   0.39371902
   0.40682613   0.42043303   0.42322543   0.46340274   0.4668003
   0.4743369    0.50840155   0.51972397   0.54116774   0.55636707
   0.5674801    0.58398142   0.60572354   0.65562087   0.67865487
   0.69779566   0.70535237   0.72385477   0.75939949   0.79256158
   0.80611482   0.82077724   0.82822559   0.87999071   0.88669889
   0.92209533   0.95324962   0.99521965   1.01182309]
nelec by numeric integration = 145.99999757755282
    CPU time for vxc     37.64 sec, wall time     15.55 sec
E1 = -4106.320522517301  Ecoul = 1898.0757227873441  Exc = -124.74964477430882
cycle= 13 E= -835.445919668214  delta_E= -1.87e-09  |g|= 3.13e-05  |ddm|= 0.000134
    CPU time for cycle= 13     38.14 sec, wall time     15.63 sec
  HOMO = -0.103471223592728  LUMO = -0.0187595350718559
  mo_energy =
[-10.04511185 -10.04440347 -10.04156875 -10.03731745 -10.02531315
 -10.01926962 -10.01439852 -10.0139046  -10.01220329 -10.01165778
 -10.01134445 -10.01044345 -10.00902722 -10.00773331 -10.00731668
 -10.0066352  -10.00589443 -10.00371413 -10.00095066 -10.00034645
  -9.99919309  -9.99496919  -0.86920166  -0.85158443  -0.84087573
  -0.77505967  -0.76011182  -0.73974058  -0.73171755  -0.72472071
  -0.69531202  -0.68524949  -0.65350913  -0.62658264  -0.603835
  -0.5897326   -0.58336572  -0.56506987  -0.5420395   -0.52813977
  -0.51474807  -0.48903109  -0.47795371  -0.46825766  -0.44879284
  -0.44166422  -0.43694144  -0.42004677  -0.41002669  -0.40861616
  -0.40356745  -0.39984433  -0.38028564  -0.3654394   -0.35664979
  -0.35340597  -0.34178933  -0.32927012  -0.31910502  -0.29830132
  -0.28912287  -0.2854137   -0.27329602  -0.25330053  -0.24119865
  -0.2290597   -0.22243488  -0.21527972  -0.20693571  -0.19971417
  -0.17780536  -0.15070941  -0.10347122  -0.01875954   0.02600274
   0.06148558   0.0756554    0.09559031   0.12561105   0.15113754
   0.17692119   0.19086999   0.22240103   0.24265737   0.25716302
   0.26993813   0.27220051   0.29219354   0.30355187   0.32310985
   0.32612468   0.34069028   0.36126067   0.37928918   0.39371769
   0.40682502   0.42043269   0.42322542   0.46340241   0.4667981
   0.47433601   0.50840159   0.51972363   0.54116633   0.55636651
   0.56747867   0.58398008   0.60572366   0.65561947   0.6786547
   0.69779552   0.70534995   0.72385463   0.75939787   0.79255931
   0.80611394   0.82077549   0.8282234    0.87999001   0.88669839
   0.92209381   0.95324898   0.99521697   1.01182054]
nelec by numeric integration = 145.99999757755643
    CPU time for vxc     37.96 sec, wall time     15.68 sec
E1 = -4106.320674753657  Ecoul = 1898.0758775285776  Exc = -124.74964727951246
cycle= 14 E= -835.445919668541  delta_E= -3.27e-10  |g|= 7.71e-06  |ddm|= 4.76e-05
    CPU time for cycle= 14     38.50 sec, wall time     15.76 sec
  HOMO = -0.103471007599248  LUMO = -0.0187592895822243
  mo_energy =
[-10.04511202 -10.0444019  -10.04156873 -10.0373172  -10.02531375
 -10.01927018 -10.01439793 -10.01390379 -10.01220298 -10.01165772
 -10.01134431 -10.01044221 -10.00902745 -10.00773334 -10.00731785
 -10.00663502 -10.00589485 -10.00371303 -10.00094936 -10.00034692
  -9.99919258  -9.99496959  -0.86920155  -0.85158423  -0.84087559
  -0.77505962  -0.76011182  -0.73974039  -0.7317175   -0.72472063
  -0.69531177  -0.68524929  -0.65350884  -0.62658254  -0.60383494
  -0.58973255  -0.58336558  -0.56506973  -0.54203944  -0.52813973
  -0.51474807  -0.4890309   -0.4779536   -0.46825753  -0.44879265
  -0.44166407  -0.43694133  -0.42004676  -0.41002668  -0.40861596
  -0.40356733  -0.39984429  -0.38028548  -0.36543924  -0.35664964
  -0.35340599  -0.34178925  -0.32926996  -0.31910504  -0.29830129
  -0.28912255  -0.28541362  -0.27329586  -0.25330048  -0.24119846
  -0.22905982  -0.22243482  -0.21527953  -0.20693564  -0.19971401
  -0.17780501  -0.15070929  -0.10347101  -0.01875929   0.02600286
   0.06148596   0.07565539   0.09559056   0.12561095   0.15113758
   0.17692139   0.19087012   0.22240118   0.24265773   0.2571631
   0.26993833   0.2722007    0.29219363   0.30355203   0.32310983
   0.32612486   0.34069046   0.36126081   0.37928926   0.39371761
   0.40682495   0.42043265   0.4232253    0.46340286   0.46679834
   0.474336     0.50840178   0.51972346   0.54116655   0.55636712
   0.56747888   0.58398024   0.60572351   0.65561963   0.67865503
   0.69779538   0.70535038   0.72385485   0.75939801   0.79255922
   0.80611358   0.82077538   0.82822337   0.87999002   0.88669875
   0.92209398   0.95324939   0.99521723   1.01182045]
nelec by numeric integration = 145.9999975775571
    CPU time for vxc     37.92 sec, wall time     15.67 sec
E1 = -4106.320661663878  Ecoul = 1898.075864219506  Exc = -124.74964706023235
cycle= 15 E= -835.445919668553  delta_E= -1.27e-11  |g|= 3.51e-06  |ddm|= 9.84e-06
    CPU time for cycle= 15     38.34 sec, wall time     15.73 sec
  HOMO = -0.1034709323698  LUMO = -0.0187593582716008
  mo_energy =
[-10.04511249 -10.04440237 -10.04156823 -10.03731719 -10.02531312
 -10.01926977 -10.01440025 -10.01390388 -10.01220276 -10.01165714
 -10.01134347 -10.0104425  -10.00902682 -10.00773458 -10.0073173
 -10.00663514 -10.00589506 -10.0037133  -10.00094742 -10.00034577
  -9.99919314  -9.9949694   -0.86920124  -0.85158413  -0.84087542
  -0.77505919  -0.76011177  -0.73974029  -0.73171755  -0.72472084
  -0.69531172  -0.68524923  -0.65350828  -0.62658262  -0.6038352
  -0.58973256  -0.58336556  -0.56506969  -0.54203935  -0.52813962
  -0.51474796  -0.48903081  -0.47795339  -0.46825744  -0.44879272
  -0.44166431  -0.43694124  -0.42004667  -0.41002657  -0.40861595
  -0.40356734  -0.39984404  -0.38028528  -0.36543915  -0.35664956
  -0.35340629  -0.34178912  -0.32926997  -0.31910504  -0.29830129
  -0.28912257  -0.28541332  -0.27329556  -0.25330045  -0.24119848
  -0.22905989  -0.22243502  -0.21527948  -0.2069358   -0.19971381
  -0.17780503  -0.15070916  -0.10347093  -0.01875936   0.02600297
   0.06148592   0.07565512   0.09559059   0.1256109    0.15113762
   0.17692159   0.19087007   0.2224012    0.24265796   0.25716321
   0.2699382    0.27220063   0.29219369   0.30355222   0.32310985
   0.32612492   0.34069068   0.36126098   0.37928921   0.39371712
   0.40682445   0.42043286   0.42322531   0.46340277   0.46679843
   0.47433575   0.50840194   0.51972318   0.54116674   0.55636693
   0.56747899   0.58398007   0.6057235    0.65561948   0.67865486
   0.69779539   0.70535037   0.7238551    0.75939851   0.79255947
   0.80611372   0.82077563   0.82822375   0.87999022   0.88669882
   0.9220943    0.95324967   0.9952176    1.01182109]
nelec by numeric integration = 145.9999975775583
    CPU time for vxc     37.84 sec, wall time     15.71 sec
E1 = -4106.3206433966325  Ecoul = 1898.075845649579  Exc = -124.74964675748481
Extra cycle  E= -835.445919668487  delta_E= 6.59e-11  |g|= 1.34e-05  |ddm|= 2.57e-05
    CPU time for scf_cycle    662.14 sec, wall time    270.18 sec
    CPU time for SCF    662.14 sec, wall time    270.18 sec
converged SCF energy = -835.445919668487
nelec by numeric integration = 145.9999975775583
    CPU time for vxc     38.10 sec, wall time     15.77 sec
 ** Mulliken pop  **
pop of  0 C 1s            1.99069
pop of  0 C 2s            1.06529
pop of  0 C 2px           1.01581
pop of  0 C 2py           0.95030
pop of  0 C 2pz           0.97218
pop of  1 C 1s            1.99050
pop of  1 C 2s            1.05540
pop of  1 C 2px           1.01467
pop of  1 C 2py           0.97945
pop of  1 C 2pz           0.98584
pop of  2 C 1s            1.99137
pop of  2 C 2s            1.22728
pop of  2 C 2px           0.94476
pop of  2 C 2py           0.92854
pop of  2 C 2pz           0.94929
pop of  3 C 1s            1.99097
pop of  3 C 2s            1.13348
pop of  3 C 2px           1.02577
pop of  3 C 2py           0.93383
pop of  3 C 2pz           1.01453
pop of  4 C 1s            1.99112
pop of  4 C 2s            1.11461
pop of  4 C 2px           1.06831
pop of  4 C 2py           0.95457
pop of  4 C 2pz           1.03349
pop of  5 C 1s            1.99083
pop of  5 C 2s            1.08995
pop of  5 C 2px           0.99993
pop of  5 C 2py           0.98301
pop of  5 C 2pz           0.99190
pop of  6 C 1s            1.99170
pop of  6 C 2s            1.20331
pop of  6 C 2px           0.92467
pop of  6 C 2py           0.97387
pop of  6 C 2pz           0.92958
pop of  7 C 1s            1.99135
pop of  7 C 2s            1.19160
pop of  7 C 2px           1.02610
pop of  7 C 2py           0.99340
pop of  7 C 2pz           0.90925
pop of  8 C 1s            1.99171
pop of  8 C 2s            1.14594
pop of  8 C 2px           0.94698
pop of  8 C 2py           0.96893
pop of  8 C 2pz           0.94049
pop of  9 C 1s            1.99140
pop of  9 C 2s            1.15951
pop of  9 C 2px           0.95843
pop of  9 C 2py           0.94573
pop of  9 C 2pz           0.92924
pop of  10 C 1s           1.99057
pop of  10 C 2s           1.03755
pop of  10 C 2px          1.03839
pop of  10 C 2py          1.03240
pop of  10 C 2pz          1.04125
pop of  11 C 1s           1.99070
pop of  11 C 2s           1.08905
pop of  11 C 2px          1.01800
pop of  11 C 2py          0.97686
pop of  11 C 2pz          1.03822
pop of  12 C 1s           1.99113
pop of  12 C 2s           1.11103
pop of  12 C 2px          0.97596
pop of  12 C 2py          0.95364
pop of  12 C 2pz          0.96944
pop of  13 C 1s           1.99101
pop of  13 C 2s           1.08768
pop of  13 C 2px          0.97624
pop of  13 C 2py          0.97056
pop of  13 C 2pz          0.98541
pop of  14 C 1s           1.99188
pop of  14 C 2s           1.23857
pop of  14 C 2px          0.93379
pop of  14 C 2py          0.90369
pop of  14 C 2pz          0.97145
pop of  15 C 1s           1.99175
pop of  15 C 2s           1.13994
pop of  15 C 2px          1.04427
pop of  15 C 2py          0.91547
pop of  15 C 2pz          1.02145
pop of  16 C 1s           1.99074
pop of  16 C 2s           1.09133
pop of  16 C 2px          1.01230
pop of  16 C 2py          0.94009
pop of  16 C 2pz          0.96051
pop of  17 C 1s           1.99002
pop of  17 C 2s           1.02526
pop of  17 C 2px          1.02439
pop of  17 C 2py          1.01043
pop of  17 C 2pz          1.00429
pop of  18 C 1s           1.99149
pop of  18 C 2s           1.23740
pop of  18 C 2px          0.96753
pop of  18 C 2py          0.90579
pop of  18 C 2pz          0.95257
pop of  19 C 1s           1.99104
pop of  19 C 2s           1.14840
pop of  19 C 2px          1.00510
pop of  19 C 2py          0.93413
pop of  19 C 2pz          0.95527
pop of  20 C 1s           1.99105
pop of  20 C 2s           1.17630
pop of  20 C 2px          1.00381
pop of  20 C 2py          0.98049
pop of  20 C 2pz          0.96247
pop of  21 C 1s           1.99085
pop of  21 C 2s           1.17277
pop of  21 C 2px          0.98999
pop of  21 C 2py          0.96653
pop of  21 C 2pz          0.95959
pop of  22 H 1s           0.92245
pop of  23 H 1s           0.88698
pop of  24 H 1s           0.87200
pop of  25 H 1s           0.93931
pop of  26 H 1s           0.96113
pop of  27 H 1s           0.89870
pop of  28 H 1s           0.91206
pop of  29 H 1s           0.89872
pop of  30 H 1s           0.89870
pop of  31 H 1s           0.88587
pop of  32 H 1s           0.91094
pop of  33 H 1s           0.94569
pop of  34 H 1s           0.90897
pop of  35 H 1s           0.91834
 ** Mulliken atomic charges  **
charge of    0C =      0.00572
charge of    1C =     -0.02587
charge of    2C =     -0.04124
charge of    3C =     -0.09858
charge of    4C =     -0.16209
charge of    5C =     -0.05561
charge of    6C =     -0.02313
charge of    7C =     -0.11170
charge of    8C =      0.00595
charge of    9C =      0.01569
charge of   10C =     -0.14015
charge of   11C =     -0.11284
charge of   12C =     -0.00119
charge of   13C =     -0.01089
charge of   14C =     -0.03938
charge of   15C =     -0.11288
charge of   16C =      0.00503
charge of   17C =     -0.05439
charge of   18C =     -0.05478
charge of   19C =     -0.03394
charge of   20C =     -0.11413
charge of   21C =     -0.07973
charge of   22H =      0.07755
charge of   23H =      0.11302
charge of   24H =      0.12800
charge of   25H =      0.06069
charge of   26H =      0.03887
charge of   27H =      0.10130
charge of   28H =      0.08794
charge of   29H =      0.10128
charge of   30H =      0.10130
charge of   31H =      0.11413
charge of   32H =      0.08906
charge of   33H =      0.05431
charge of   34H =      0.09103
charge of   35H =      0.08166
Dipole moment(X, Y, Z, Debye): -0.13086, -0.39023,  1.51801
nelec by numeric integration = 145.9999975775583
    CPU time for vxc     37.46 sec, wall time     15.61 sec
E1 = -4106.3206433966325  Ecoul = 1898.0758456495785  Exc = -124.74964675748481
nelec by numeric integration = 145.9999975775583
    CPU time for vxc     38.07 sec, wall time     15.75 sec
E1 = -4106.3206433966325  Ecoul = 1898.0758456495796  Exc = -124.74964675748481
