System: uname_result(system='Linux', node='cosmopc18', release='5.15.0-97-generic', version='#107-Ubuntu SMP Wed Feb 7 13:26:48 UTC 2024', machine='x86_64')  Threads 4
Python 3.11.8 (main, Feb 26 2024, 21:39:34) [GCC 11.2.0]
numpy 1.26.4  scipy 1.11.4
Date: Tue Apr  9 10:50:15 2024
PySCF version 2.3.0
PySCF path  /home/saade/miniconda3/envs/tutorial/lib/python3.11/site-packages/pyscf

[ENV] PYSCFAD_BACKEND torch
[CONFIG] conf_file None
[INPUT] verbose = 5
[INPUT] max_memory = 4000 
[INPUT] num. atoms = 36
[INPUT] num. electrons = 146
[INPUT] charge = 0
[INPUT] spin (= nelec alpha-beta = 2S) = 0
[INPUT] symmetry False subgroup None
[INPUT] Mole.unit = angstrom
[INPUT] Symbol           X                Y                Z      unit          X                Y                Z       unit  Magmom
[INPUT]  1 C      0.120860000000   3.630376000000   0.680242000000 AA    0.228392299415   6.860416369194   1.285471078426 Bohr   0.0
[INPUT]  2 C      0.004561000000   3.513007000000  -0.713870000000 AA    0.008619040854   6.638621103680  -1.349018788543 Bohr   0.0
[INPUT]  3 C     -0.099148000000   4.800695000000   1.407661000000 AA   -0.187362565798   9.071998757569   2.660093766231 Bohr   0.0
[INPUT]  4 C      0.027356000000   2.201565000000   1.341198000000 AA    0.051695347864   4.160354895428   2.534496898814 Bohr   0.0
[INPUT]  5 C     -0.010676000000   5.067271000000  -1.603710000000 AA   -0.020174716106   9.575754388951  -3.030572683226 Bohr   0.0
[INPUT]  6 C     -0.103662000000   2.487293000000  -1.397891000000 AA   -0.195892789525   4.700302561548  -2.641631141994 Bohr   0.0
[INPUT]  7 C      0.037905000000   5.889186000000  -0.811550000000 AA    0.071630068752  11.128948636623  -1.533607236391 Bohr   0.0
[INPUT]  8 C      0.028954000000   6.002867000000   0.651449000000 AA    0.054715130211  11.343774592189   1.231060194122 Bohr   0.0
[INPUT]  9 C     -0.144503000000   1.323272000000   0.658850000000 AA   -0.273071094178   2.500621668305   1.245046057170 Bohr   0.0
[INPUT] 10 C     -0.109183000000   1.027819000000  -0.884547000000 AA   -0.206325967458   1.942296415624  -1.671551574306 Bohr   0.0
[INPUT] 11 C     -0.028460000000  -0.028758000000   1.369046000000 AA   -0.053781605505  -0.054344743890   2.587121991931 Bohr   0.0
[INPUT] 12 C     -0.119295000000  -0.156234000000  -1.397795000000 AA   -0.225434878030  -0.295239471345  -2.641449728286 Bohr   0.0
[INPUT] 13 C     -0.030108000000  -1.121672000000   0.740620000000 AA   -0.056895874158  -2.119652881593   1.399568962375 Bohr   0.0
[INPUT] 14 C     -0.052305000000  -1.029021000000  -0.548139000000 AA   -0.098842124945  -1.944567866426  -1.035832588193 Bohr   0.0
[INPUT] 15 C      0.117530000000  -2.490753000000   1.418948000000 AA    0.222099511420  -4.706841013939   2.681423104999 Bohr   0.0
[INPUT] 16 C     -0.068280000000  -2.303144000000  -1.597531000000 AA   -0.129030499785  -4.352311385435  -3.018896065503 Bohr   0.0
[INPUT] 17 C     -0.037271000000  -3.700026000000   0.756687000000 AA   -0.070431982389  -6.992035793770   1.429931192019 Bohr   0.0
[INPUT] 18 C     -0.032501000000  -3.786909000000  -0.784403000000 AA   -0.061417988774  -7.156220868651  -1.482306841287 Bohr   0.0
[INPUT] 19 C      0.010698000000  -4.976501000000   1.364374000000 AA    0.020216290081  -9.404223948624   2.578293191477 Bohr   0.0
[INPUT] 20 C      0.043995000000  -5.033587000000  -1.560362000000 AA    0.083138500850  -9.512100854171  -2.948656835179 Bohr   0.0
[INPUT] 21 C     -0.152614000000  -5.921911000000   0.757346000000 AA   -0.288398662774 -11.190789924049   1.431176521535 Bohr   0.0
[INPUT] 22 C     -0.120635000000  -6.194896000000  -0.790198000000 AA   -0.227967111037 -11.706656810164  -1.493257804179 Bohr   0.0
[INPUT] 23 H     -0.053364000000   5.046459000000   2.483798000000 AA   -0.100843344911   9.536425408846   4.693697968742 Bohr   0.0
[INPUT] 24 H      0.065502000000   2.360974000000   2.561214000000 AA    0.123780840611   4.461594247219   4.839993006402 Bohr   0.0
[INPUT] 25 H      0.095269000000   4.764291000000  -2.470331000000 AA    0.180032318161   9.003205167730  -4.668249027023 Bohr   0.0
[INPUT] 26 H     -0.046564000000   2.383803000000  -2.448832000000 AA   -0.087993207264   4.504734804917  -4.627621805071 Bohr   0.0
[INPUT] 27 H     -0.185646000000   7.079495000000  -1.264520000000 AA   -0.350820096121  13.378306650228  -2.389596479035 Bohr   0.0
[INPUT] 28 H     -0.191520000000   6.935020000000   1.293398000000 AA   -0.361920347377  13.105288468381   2.444167990060 Bohr   0.0
[INPUT] 29 H      0.211103000000  -0.069640000000   2.688958000000 AA    0.398926854074  -0.131600527315   5.081394180458 Bohr   0.0
[INPUT] 30 H      0.054251000000  -0.093352000000  -2.568688000000 AA    0.102519531984  -0.176409713180  -4.854116819457 Bohr   0.0
[INPUT] 31 H     -0.046175000000  -2.399405000000   2.410811000000 AA   -0.087258103802  -4.534218311912   4.555772528089 Bohr   0.0
[INPUT] 32 H      0.184682000000  -2.556244000000  -2.370560000000 AA    0.348998400137  -4.830601067563  -4.479709161849 Bohr   0.0
[INPUT] 33 H      0.017053000000  -4.997241000000   2.597432000000 AA    0.032225499602  -9.443416868448   4.908435107181 Bohr   0.0
[INPUT] 34 H     -0.025687000000  -4.775977000000  -2.445893000000 AA   -0.048541394962  -9.025288507222  -4.622067899991 Bohr   0.0
[INPUT] 35 H     -0.026815000000  -6.834173000000   1.146411000000 AA   -0.050673006030 -12.914715257897   2.166402816189 Bohr   0.0
[INPUT] 36 H     -0.034807000000  -7.100192000000  -1.274734000000 AA   -0.065775697218 -13.417418311828  -2.408898141671 Bohr   0.0
[INPUT] ---------------- BASIS SET ---------------- 
[INPUT] l, kappa, [nprim/nctr], expnt,             c_1 c_2 ...
[INPUT] H
[INPUT] 0    0    [3    /1   ]  3.42525091        0.15432897
                                0.62391373        0.53532814
                                0.1688554         0.44463454
[INPUT] C
[INPUT] 0    0    [3    /1   ]  71.616837         0.15432897
                                13.045096         0.53532814
                                3.5305122         0.44463454
[INPUT] 0    0    [3    /1   ]  2.9412494         -0.09996723
                                0.6834831         0.39951283
                                0.2222899         0.70011547
[INPUT] 1    0    [3    /1   ]  2.9412494         0.15591627
                                0.6834831         0.60768372
                                0.2222899         0.39195739

nuclear repulsion = 1499.48919287967
number of shells = 80
number of NR pGTOs = 372
number of NR cGTOs = 124
basis = sto3g
ecp = {}
CPU time:     10006.06
atom C rad-grids = 99, ang-grids = [ 50  50  50  50  50  50  50  50  50  50  50  50  50  50  50  50  50  50
  50  50  50  50  50  50  50  50  50  50  50  50  50  86  86  86  86  86
  86  86  86  86  86  86  86 434 434 434 434 434 434 434 434 434 590 590
 590 590 590 590 590 590 590 590 590 590 590 590 590 590 590 590 590 590
 590 590 590 590 590 590 590 434 434 434 434 434 434 434 434 434 434 434
 434 434 434 434 434 434 434 434 434]
atom H rad-grids = 99, ang-grids = [ 50  50  50  50  50  50  50  50  50  50  50  50  50  50  50  50  50  50
  50  50  50  50  50  50  50  50  50  50  86  86  86  86  86  86  86 434
 434 434 434 434 434 434 434 590 590 590 590 590 590 590 590 590 590 590
 590 590 590 590 590 590 590 590 590 590 590 590 590 590 590 434 434 434
 434 434 434 434 434 434 434 434 434 434 434 434 434 434 434 434 434 434
 434 434 434 434 434 434 434 434 434]
tot_boxes 5270, boxes in each direction [ 8 29 15]
Padding 0 grids
tot grids = 1157832


******** <class 'pyscf.dft.rks.RKS'> ********
method = RKS
initial guess = minao
damping factor = 0
level_shift factor = 0
DIIS = <class 'pyscf.scf.diis.CDIIS'>
diis_start_cycle = 1
diis_space = 8
SCF conv_tol = 1e-10
SCF conv_tol_grad = None
SCF max_cycles = 50
direct_scf = True
direct_scf_tol = 1e-13
chkfile to save SCF result = /home/saade/mlelec/tutorials/tmpzh_i66ob
max_memory 4000 MB (current use 636 MB)
XC library pyscf.dft.libxc version 6.1.0
    S. Lehtola, C. Steigemann, M. J.T. Oliveira, and M. A.L. Marques.,  SoftwareX 7, 1–5 (2018)
XC functionals = b3lypg
    P. J. Stephens, F. J. Devlin, C. F. Chabalowski, and M. J. Frisch.,  J. Phys. Chem. 98, 11623 (1994)
radial grids: 
    Treutler-Ahlrichs [JCP 102, 346 (1995); DOI:10.1063/1.469408] (M4) radial grids
    
becke partition: Becke, JCP 88, 2547 (1988); DOI:10.1063/1.454033
pruning grids: <function nwchem_prune at 0x7f9db5616ca0>
grids dens level: 3
symmetrized grids: False
atomic radii adjust function: <function treutler_atomic_radii_adjust at 0x7f9db5617380>
User specified grid scheme (99, 590)
small_rho_cutoff = 1e-07
Set gradient conv threshold to 1e-05
Initial guess from minao.
nelec by numeric integration = 145.26764748673725
    CPU time for vxc     37.09 sec, wall time     15.50 sec
E1 = -4098.099757209659  Ecoul = 1883.1644179288653  Exc = -126.17514264381836
init E= -841.621289044947
cond(S) = 26.803631267903906
    CPU time for initialize scf     46.74 sec, wall time     17.84 sec
  HOMO = -0.200940625064614  LUMO = -0.149768804320601
  mo_energy =
[-1.01466572e+01 -1.01464461e+01 -1.01409178e+01 -1.01391219e+01
 -1.01371290e+01 -1.01370665e+01 -1.01365942e+01 -1.01345947e+01
 -1.01226675e+01 -1.01174817e+01 -1.01088505e+01 -1.01010170e+01
 -1.01008956e+01 -1.01007475e+01 -1.00979501e+01 -1.00972367e+01
 -1.00933813e+01 -1.00919354e+01 -1.00882693e+01 -1.00764128e+01
 -1.00730514e+01 -1.00666261e+01 -1.12665528e+00 -1.06510966e+00
 -1.05310265e+00 -1.00864893e+00 -9.75849005e-01 -9.30733393e-01
 -9.26130467e-01 -9.13283763e-01 -8.87237751e-01 -8.45281754e-01
 -7.98080981e-01 -7.60095562e-01 -7.35602462e-01 -7.04911561e-01
 -6.91959098e-01 -6.88329602e-01 -6.51442159e-01 -6.46795128e-01
 -6.10596363e-01 -5.93954016e-01 -5.83111745e-01 -5.62279009e-01
 -5.56050074e-01 -5.31070197e-01 -5.18523686e-01 -5.03041006e-01
 -4.99769157e-01 -4.97392243e-01 -4.87024713e-01 -4.84442308e-01
 -4.60940195e-01 -4.47943527e-01 -4.42066950e-01 -4.36671693e-01
 -4.28010984e-01 -4.20647695e-01 -4.07144609e-01 -4.05144932e-01
 -3.95151440e-01 -3.85452948e-01 -3.73751567e-01 -3.47737551e-01
 -3.39494559e-01 -3.32119657e-01 -3.24279520e-01 -3.16266858e-01
 -3.08868297e-01 -2.91564891e-01 -2.58904656e-01 -2.41950409e-01
 -2.00940625e-01 -1.49768804e-01 -1.14549341e-01 -5.43900529e-02
 -3.89741729e-02 -1.34502491e-02 -6.41519231e-03  1.90893480e-02
  2.88510262e-02  6.34157702e-02  7.11936247e-02  7.73098711e-02
  1.10392155e-01  1.17353137e-01  1.27390006e-01  1.35870920e-01
  1.41372921e-01  1.82336721e-01  1.84509429e-01  2.16463662e-01
  2.18145315e-01  2.34551025e-01  2.46769854e-01  2.52657768e-01
  2.72115285e-01  2.79672413e-01  2.91464238e-01  3.23564909e-01
  3.34323053e-01  3.42520313e-01  3.64084345e-01  3.83227953e-01
  4.05781319e-01  4.22865402e-01  4.56157293e-01  4.66151336e-01
  4.71386833e-01  4.84798652e-01  5.21768715e-01  5.32314522e-01
  5.74537466e-01  5.93370602e-01  6.16403726e-01  6.61194250e-01
  6.69150719e-01  6.97785723e-01  7.16940914e-01  7.64973178e-01
  8.28613941e-01  9.10869357e-01  9.54871809e-01  9.83212765e-01]
nelec by numeric integration = 146.00000202536805
    CPU time for vxc     38.60 sec, wall time     15.81 sec
E1 = -4113.78862745294  Ecoul = 1903.8278735350518  Exc = -124.85401834227764
cycle= 1 E= -835.325579380501  delta_E=  6.3  |g|= 0.332  |ddm|= 9.33
    CPU time for cycle= 1     38.92 sec, wall time     15.87 sec
  HOMO = -0.0795982527529322  LUMO = 0.00309870905869256
  mo_energy =
[-1.00806274e+01 -1.00232590e+01 -1.00218193e+01 -1.00153204e+01
 -1.00124889e+01 -9.99422378e+00 -9.99334089e+00 -9.99237860e+00
 -9.99144443e+00 -9.99114821e+00 -9.98768865e+00 -9.98762501e+00
 -9.98626509e+00 -9.98594863e+00 -9.98434650e+00 -9.95369623e+00
 -9.95344606e+00 -9.95182152e+00 -9.94253494e+00 -9.93550358e+00
 -9.90969315e+00 -9.88334827e+00 -8.41300496e-01 -8.25298128e-01
 -7.94355513e-01 -7.56552012e-01 -7.47652436e-01 -7.38684443e-01
 -7.13042778e-01 -7.11216524e-01 -6.82723204e-01 -6.50219498e-01
 -6.34320755e-01 -6.04458760e-01 -5.78978038e-01 -5.64816580e-01
 -5.49405937e-01 -5.43119466e-01 -5.18374627e-01 -5.00326292e-01
 -4.81608952e-01 -4.74734876e-01 -4.53396317e-01 -4.46121857e-01
 -4.30162259e-01 -4.18827763e-01 -4.13897165e-01 -4.10519701e-01
 -3.86043717e-01 -3.78872469e-01 -3.66170197e-01 -3.51542785e-01
 -3.47220110e-01 -3.36400837e-01 -3.32238515e-01 -3.31230971e-01
 -3.25517017e-01 -3.06711954e-01 -3.01871194e-01 -2.94783625e-01
 -2.71340449e-01 -2.61048085e-01 -2.54687652e-01 -2.42363834e-01
 -2.30187372e-01 -2.19860895e-01 -2.08925568e-01 -1.98804575e-01
 -1.90405937e-01 -1.73879717e-01 -1.40708584e-01 -1.12142708e-01
 -7.95982528e-02  3.09870906e-03  5.01434316e-02  8.48536374e-02
  1.19615440e-01  1.33312542e-01  1.62963993e-01  1.89403351e-01
  2.19946421e-01  2.26004254e-01  2.35521197e-01  2.42558928e-01
  2.51623870e-01  2.66518494e-01  2.87946132e-01  3.06166803e-01
  3.12290692e-01  3.19225234e-01  3.61164237e-01  3.70853306e-01
  3.76797159e-01  3.96195648e-01  4.00175985e-01  4.07156036e-01
  4.12811292e-01  4.32196115e-01  4.55387108e-01  4.61864416e-01
  4.88660353e-01  4.99315213e-01  5.11049773e-01  5.20692605e-01
  5.37432155e-01  5.76398672e-01  5.90012266e-01  6.04351084e-01
  6.23006744e-01  6.27725156e-01  6.77531592e-01  7.01647422e-01
  7.35237548e-01  7.50153173e-01  7.69818160e-01  7.90565293e-01
  8.44979864e-01  8.79010753e-01  9.01266991e-01  9.73159721e-01
  1.02083125e+00  1.07724025e+00  1.16004380e+00  1.17420495e+00]
nelec by numeric integration = 146.0000021488836
    CPU time for vxc     38.09 sec, wall time     15.66 sec
E1 = -4106.769065395252  Ecoul = 1896.717856742389  Exc = -124.6936330983412
cycle= 2 E= -835.255648871539  delta_E= 0.0699  |g|= 0.546  |ddm|= 1.35
    CPU time for cycle= 2     38.85 sec, wall time     15.76 sec
  HOMO = -0.0962672975093759  LUMO = -0.0136882485750165
  mo_energy =
[-10.05455091 -10.03671946 -10.02981654 -10.02015922 -10.01904344
 -10.01382285 -10.00825324 -10.00799564 -10.0063226  -10.00464098
 -10.00160368 -10.00159861 -10.00037319 -10.00001563  -9.99612184
  -9.99045069  -9.98818994  -9.9863472   -9.98493773  -9.98047098
  -9.97389398  -9.97143177  -0.8799584   -0.82344243  -0.81218748
  -0.78625838  -0.76995034  -0.73629095  -0.72983367  -0.72288698
  -0.70416759  -0.68111841  -0.64648004  -0.61132527  -0.60069965
  -0.56980251  -0.56243218  -0.56097821  -0.52603728  -0.51901578
  -0.49930465  -0.48013875  -0.46874833  -0.46022745  -0.45315426
  -0.42365947  -0.41558847  -0.40404536  -0.39841711  -0.38695174
  -0.38455381  -0.38319503  -0.36614706  -0.3484572   -0.34165913
  -0.3313902   -0.32669337  -0.31963343  -0.31056849  -0.30614738
  -0.29595824  -0.28818699  -0.26626779  -0.25682618  -0.24352396
  -0.22982631  -0.2252518   -0.22052776  -0.21333602  -0.18391366
  -0.16629354  -0.14448742  -0.0962673   -0.01368825   0.01906902
   0.09011628   0.1053365    0.1332768    0.14288006   0.16665075
   0.18383616   0.20459591   0.21357638   0.21987189   0.25195611
   0.25377322   0.27293626   0.27969548   0.29141318   0.30989898
   0.33517924   0.36206384   0.36719667   0.37595977   0.38414726
   0.40245056   0.40568989   0.42487512   0.43474641   0.46332626
   0.4772136    0.48660389   0.50320612   0.53068351   0.55164492
   0.57107283   0.59970155   0.60228349   0.61763138   0.6299583
   0.65870141   0.67834823   0.71970027   0.7367005    0.75818468
   0.79425488   0.81140876   0.82564396   0.85640922   0.92212462
   0.9748209    1.08311704   1.12156578   1.14287496]
nelec by numeric integration = 146.0000020706735
    CPU time for vxc     38.56 sec, wall time     15.79 sec
E1 = -4109.565763896275  Ecoul = 1899.4621192005416  Exc = -124.71989512739907
cycle= 3 E= -835.334346943467  delta_E= -0.0787  |g|= 0.313  |ddm|= 1.25
    CPU time for cycle= 3     39.01 sec, wall time     15.86 sec
  HOMO = -0.100019265928023  LUMO = -0.0206402807831848
  mo_energy =
[-10.04844213 -10.03680109 -10.03539811 -10.03131083 -10.0295168
 -10.02775958 -10.02519354 -10.02202055 -10.0202019  -10.01891165
 -10.01692072 -10.01594442 -10.01515669 -10.01300333 -10.01224512
 -10.00808807 -10.0078385  -10.00501228 -10.00440076 -10.00110828
  -9.98973867  -9.97629046  -0.88267627  -0.83548621  -0.83041695
  -0.79710317  -0.77769498  -0.74286626  -0.74206151  -0.73010864
  -0.71479254  -0.67938799  -0.64641823  -0.62102928  -0.60205072
  -0.57751691  -0.56945901  -0.56807376  -0.53227584  -0.52868784
  -0.50443266  -0.48928983  -0.47611342  -0.46299456  -0.45760097
  -0.43370117  -0.42373527  -0.41370769  -0.40358911  -0.39779896
  -0.39158472  -0.38949227  -0.37236863  -0.35287963  -0.3496508
  -0.3427445   -0.3343169   -0.32934856  -0.32513967  -0.31027427
  -0.30359148  -0.2972052   -0.27478908  -0.26628736  -0.25069699
  -0.23838933  -0.23441434  -0.22107613  -0.22078437  -0.19830026
  -0.17327597  -0.1413911   -0.10001927  -0.02064028   0.0209796
   0.07827573   0.09737223   0.12181898   0.13267069   0.15887196
   0.1738911    0.2046826    0.20888932   0.21562186   0.24133875
   0.24727402   0.26428205   0.27602509   0.28898405   0.30791069
   0.32988705   0.35207985   0.36201049   0.37226762   0.38066342
   0.39304552   0.40122493   0.41612576   0.42646903   0.45370182
   0.47031295   0.47586342   0.49736754   0.51530868   0.53948475
   0.56132374   0.58738736   0.59530918   0.60181007   0.61477666
   0.65152547   0.67084927   0.71186352   0.72861808   0.74707248
   0.78727521   0.81043927   0.83618236   0.85349584   0.91268355
   0.97389918   1.05942206   1.10515376   1.12897247]
nelec by numeric integration = 146.00000205691217
    CPU time for vxc     38.07 sec, wall time     15.72 sec
E1 = -4110.387421288109  Ecoul = 1900.2674949811014  Exc = -124.73795206877946
cycle= 4 E= -835.368685496122  delta_E= -0.0343  |g|= 0.0855  |ddm|= 0.571
    CPU time for cycle= 4     38.56 sec, wall time     15.80 sec
  HOMO = -0.10184230838592  LUMO = -0.0216092458714529
  mo_energy =
[-10.04635018 -10.03303812 -10.03234224 -10.03124651 -10.03033189
 -10.02484354 -10.02356885 -10.02295996 -10.02109475 -10.01779593
 -10.01614234 -10.01529306 -10.01445865 -10.0138051  -10.01323268
 -10.00965196 -10.00867642 -10.00629418 -10.00248016 -10.00033719
  -9.99895937  -9.9922243   -0.87934946  -0.83477209  -0.82973796
  -0.79713764  -0.77453617  -0.74401671  -0.73874951  -0.73328761
  -0.71359843  -0.6806433   -0.64834257  -0.62259089  -0.60235753
  -0.57740026  -0.56943172  -0.56668384  -0.53134972  -0.52743787
  -0.50527435  -0.48786735  -0.47601398  -0.46389617  -0.45649057
  -0.43416368  -0.42326128  -0.4137972   -0.40427796  -0.39704751
  -0.39094287  -0.38643472  -0.36975932  -0.35527236  -0.35018999
  -0.34339281  -0.33457956  -0.3289448   -0.32544304  -0.31183949
  -0.30304938  -0.2955927   -0.27180697  -0.26721057  -0.24842207
  -0.23681352  -0.23630287  -0.22381011  -0.22276587  -0.19746933
  -0.17294119  -0.14399132  -0.10184231  -0.02160925   0.0184856
   0.07859378   0.09540778   0.12058123   0.1332091    0.15921479
   0.17802792   0.20621467   0.2109575    0.21617177   0.24044417
   0.24824264   0.26478273   0.27661997   0.28566967   0.30523101
   0.33275141   0.35357107   0.36217219   0.36979571   0.38105867
   0.3945145    0.39666285   0.41903408   0.42773262   0.45244539
   0.46986202   0.47573879   0.49629999   0.51551002   0.53785581
   0.56333274   0.58632068   0.59299556   0.60467125   0.61572777
   0.65003383   0.67097033   0.71210276   0.72740345   0.74835125
   0.78510799   0.81440804   0.8333121    0.85542311   0.91775865
   0.97579081   1.05793184   1.11186402   1.12580194]
nelec by numeric integration = 146.0000020673088
    CPU time for vxc     37.77 sec, wall time     15.58 sec
E1 = -4110.006995437019  Ecoul = 1899.8868442130456  Exc = -124.73972370483418
cycle= 5 E= -835.370682049142  delta_E= -0.002  |g|= 0.0432  |ddm|= 0.189
    CPU time for cycle= 5     38.06 sec, wall time     15.63 sec
  HOMO = -0.102262518505514  LUMO = -0.0216582111575012
  mo_energy =
[-10.05140768 -10.03599921 -10.03093967 -10.02895616 -10.02557236
 -10.02523358 -10.02383848 -10.0208315  -10.02051535 -10.01998496
 -10.01949289 -10.01757807 -10.01288132 -10.01206204 -10.01042216
 -10.00916096 -10.00850471 -10.00470869 -10.00268791 -10.00234582
  -9.99562558  -9.99269949  -0.88226576  -0.83413792  -0.82829486
  -0.79475338  -0.77696009  -0.74475263  -0.73804116  -0.73061945
  -0.71458578  -0.68147312  -0.648126    -0.62230989  -0.60289238
  -0.57684785  -0.56937473  -0.56724787  -0.53238635  -0.52721816
  -0.50360433  -0.48850109  -0.47527395  -0.46235223  -0.45751524
  -0.43422833  -0.42372354  -0.41440079  -0.40249839  -0.39850049
  -0.3898677   -0.38885368  -0.37148777  -0.35297482  -0.34884094
  -0.34290099  -0.33368648  -0.33007635  -0.32632366  -0.31165141
  -0.30259454  -0.29506863  -0.27345091  -0.26776009  -0.24868399
  -0.2375381   -0.23580315  -0.22473898  -0.22129877  -0.1989095
  -0.17146327  -0.14456652  -0.10226252  -0.02165821   0.0180953
   0.07716704   0.09694149   0.11943533   0.13313707   0.16175719
   0.17817979   0.20553456   0.21062355   0.21497328   0.24065503
   0.24747049   0.26382755   0.27659641   0.28500765   0.30777192
   0.33093217   0.35205609   0.3631463    0.37142787   0.38129371
   0.39376048   0.39998173   0.41707252   0.42721937   0.45190318
   0.4708517    0.47700781   0.49850675   0.51451711   0.53647471
   0.56353054   0.5855198    0.59458063   0.60312267   0.61447094
   0.65322979   0.67259658   0.71187494   0.72948881   0.74718611
   0.78452634   0.81078259   0.83199875   0.85387203   0.91838829
   0.97309164   1.05946911   1.11157721   1.1308649 ]
nelec by numeric integration = 146.00000206138895
    CPU time for vxc     38.44 sec, wall time     15.75 sec
E1 = -4110.186554259637  Ecoul = 1900.0638742470246  Exc = -124.73774554426707
cycle= 6 E= -835.371232677214  delta_E= -0.000551  |g|= 0.021  |ddm|= 0.106
    CPU time for cycle= 6     38.73 sec, wall time     15.81 sec
  HOMO = -0.101738197290877  LUMO = -0.0209082530790892
  mo_energy =
[-10.04830804 -10.03313299 -10.02887635 -10.02796596 -10.02609512
 -10.02521536 -10.02301275 -10.0185467  -10.017385   -10.01709808
 -10.01700116 -10.01665463 -10.01570564 -10.01111324 -10.01047271
 -10.01002219 -10.00797657 -10.0070392  -10.00465413 -10.00082717
  -9.99849723  -9.99012759  -0.88022326  -0.83344474  -0.82854884
  -0.79504571  -0.77538333  -0.74362987  -0.7386346   -0.73138484
  -0.71353431  -0.68041015  -0.64753064  -0.62169862  -0.60211481
  -0.57647354  -0.56895312  -0.56688765  -0.53129401  -0.52712533
  -0.50377525  -0.48784878  -0.47519611  -0.46282454  -0.45666243
  -0.4332914   -0.42303109  -0.41358583  -0.40319436  -0.39732586
  -0.39026469  -0.38730891  -0.3704868   -0.35375173  -0.34917392
  -0.34238266  -0.33358371  -0.32926691  -0.32528641  -0.31122655
  -0.30246895  -0.29519479  -0.27244472  -0.26675882  -0.24864787
  -0.23642996  -0.23605942  -0.22336018  -0.22183561  -0.19769056
  -0.17221815  -0.14383019  -0.1017382   -0.02090825   0.01911536
   0.07852967   0.09659877   0.120654     0.13364246   0.16068884
   0.17802964   0.20655124   0.21094276   0.21595096   0.24152758
   0.24831618   0.26481645   0.27691889   0.2862629    0.30687764
   0.33207744   0.35325221   0.36300541   0.37121427   0.38143511
   0.39477284   0.39880313   0.41846789   0.4276615    0.45285916
   0.47096051   0.47669276   0.49751322   0.51571676   0.53784794
   0.5637661    0.58664011   0.59429032   0.60391984   0.6156751
   0.65221184   0.67189159   0.7125949    0.7284973    0.7479198
   0.78566898   0.81299696   0.83358828   0.85494977   0.91739863
   0.97530165   1.06058831   1.11202599   1.1298001 ]
nelec by numeric integration = 146.00000206465214
    CPU time for vxc     38.09 sec, wall time     15.68 sec
E1 = -4110.094291711212  Ecoul = 1899.9702146385685  Exc = -124.7365177113762
cycle= 7 E= -835.371401904354  delta_E= -0.000169  |g|= 0.00573  |ddm|= 0.0451
    CPU time for cycle= 7     38.51 sec, wall time     15.75 sec
  HOMO = -0.101626015509842  LUMO = -0.0207454795373011
  mo_energy =
[-10.04880405 -10.03343545 -10.02937744 -10.02811569 -10.02642581
 -10.02572967 -10.0229514  -10.01899055 -10.01765329 -10.01717728
 -10.01703925 -10.01693871 -10.01419478 -10.01061309 -10.01010079
 -10.00872492 -10.00729439 -10.00648707 -10.00433225 -10.00063058
  -9.99816539  -9.98996208  -0.88047933  -0.83343166  -0.82842599
  -0.7951264   -0.77550514  -0.74343842  -0.7384765   -0.73095593
  -0.71353311  -0.68036506  -0.64740075  -0.62158879  -0.60207023
  -0.57640926  -0.56882568  -0.56683797  -0.53130318  -0.52707717
  -0.50375025  -0.48782384  -0.47510647  -0.46261704  -0.45667166
  -0.43335726  -0.42304728  -0.41354758  -0.40303086  -0.3972882
  -0.39018175  -0.38747488  -0.37059769  -0.35341234  -0.34899108
  -0.34232678  -0.33345277  -0.32915321  -0.32520277  -0.31116214
  -0.30248894  -0.29513223  -0.27250224  -0.26678731  -0.24860089
  -0.23623787  -0.23589723  -0.22329195  -0.22147153  -0.19770503
  -0.17206212  -0.14371533  -0.10162602  -0.02074548   0.01923961
   0.07855829   0.09694816   0.1208288    0.1337308    0.16085411
   0.17803357   0.20646528   0.21087393   0.21586635   0.24139187
   0.24824187   0.26476412   0.27706198   0.28638105   0.30708865
   0.33200003   0.35331835   0.36317907   0.37133862   0.38147537
   0.39472783   0.39909209   0.41835161   0.42774794   0.45299274
   0.47112328   0.47687936   0.4978284    0.51577954   0.53803137
   0.56379989   0.58675733   0.59461583   0.60401054   0.61567483
   0.65243717   0.67225391   0.71267106   0.72898323   0.74810529
   0.78580378   0.81281885   0.83357102   0.85490919   0.91765952
   0.97497645   1.06036273   1.1117559    1.12968508]
nelec by numeric integration = 146.0000020635851
    CPU time for vxc     37.58 sec, wall time     15.56 sec
E1 = -4110.09480506872  Ecoul = 1899.970639952819  Exc = -124.73644158151782
cycle= 8 E= -835.371413817754  delta_E= -1.19e-05  |g|= 0.00112  |ddm|= 0.00997
    CPU time for cycle= 8     38.03 sec, wall time     15.63 sec
  HOMO = -0.101637996144148  LUMO = -0.0207315671906445
  mo_energy =
[-10.0487264  -10.03349179 -10.02949595 -10.02814328 -10.02659218
 -10.02567648 -10.02281399 -10.01908386 -10.01768877 -10.01709464
 -10.01699175 -10.01687265 -10.01449851 -10.01054434 -10.01003219
 -10.00912652 -10.00723695 -10.00644353 -10.00426627 -10.00063997
  -9.99801161  -9.98991156  -0.88047036  -0.83344382  -0.82845946
  -0.79514779  -0.77549195  -0.74343651  -0.73844679  -0.7310636
  -0.7135138   -0.68035867  -0.64740927  -0.62160197  -0.60207887
  -0.57641816  -0.56883205  -0.56684521  -0.5312898   -0.52708224
  -0.50377002  -0.48782556  -0.47514426  -0.46266749  -0.45666212
  -0.43335818  -0.42303946  -0.41354128  -0.40305618  -0.39725979
  -0.3901813   -0.38746282  -0.37058746  -0.3534968   -0.34900563
  -0.34234291  -0.33347984  -0.32915099  -0.3251865   -0.31116337
  -0.30249893  -0.29515296  -0.27248458  -0.26677403  -0.24858663
  -0.23623401  -0.23590228  -0.2232838   -0.22153589  -0.19768054
  -0.17205976  -0.14371828  -0.101638    -0.02073157   0.01925295
   0.07858735   0.09687494   0.12083871   0.13371298   0.16086743
   0.17805164   0.20648794   0.21087493   0.21587799   0.24139567
   0.2482515    0.26477932   0.27705966   0.28639918   0.30704174
   0.33201054   0.35334306   0.36314717   0.37131509   0.38144562
   0.39474134   0.39902858   0.41837886   0.42775463   0.45299021
   0.47109605   0.47686259   0.49778135   0.51579651   0.53805601
   0.56378789   0.58676401   0.59454237   0.60402724   0.61568525
   0.65237468   0.67219996   0.71263783   0.72889573   0.74811442
   0.78581116   0.81284245   0.8335782    0.85491954   0.91768843
   0.97497539   1.06032727   1.11175698   1.12965995]
nelec by numeric integration = 146.00000206357961
    CPU time for vxc     38.19 sec, wall time     15.74 sec
E1 = -4110.0960503065235  Ecoul = 1899.9719393031053  Exc = -124.73649609571237
cycle= 9 E= -835.371414219465  delta_E= -4.02e-07  |g|= 0.000414  |ddm|= 0.00206
    CPU time for cycle= 9     38.64 sec, wall time     15.81 sec
  HOMO = -0.101659629193977  LUMO = -0.020739636282071
  mo_energy =
[-10.04871588 -10.03350903 -10.02947635 -10.02816108 -10.0265581
 -10.02565028 -10.02284324 -10.01904824 -10.01763175 -10.01713651
 -10.0169847  -10.01693457 -10.01443481 -10.01058264 -10.01012038
 -10.0090567  -10.00725178 -10.00652519 -10.00435616 -10.00065352
  -9.99807145  -9.98995023  -0.88048046  -0.83344839  -0.82845558
  -0.79514038  -0.7755094   -0.74346556  -0.73846184  -0.7310539
  -0.71352636  -0.68037718  -0.64742133  -0.62161559  -0.60209105
  -0.57643212  -0.56885151  -0.56685334  -0.53130537  -0.52708721
  -0.50378055  -0.48783454  -0.47513489  -0.46267128  -0.45667306
  -0.43336054  -0.42304759  -0.41355709  -0.40304857  -0.3972757
  -0.39018029  -0.3874696   -0.37058833  -0.35348911  -0.34901696
  -0.34234692  -0.3334826   -0.32916047  -0.32520219  -0.31116305
  -0.30249063  -0.29514453  -0.27250112  -0.26678343  -0.24858499
  -0.23625709  -0.23590822  -0.22330003  -0.22153706  -0.19769643
  -0.17206266  -0.14373884  -0.10165963  -0.02073964   0.01923898
   0.07857146   0.09687901   0.12081132   0.13370552   0.16086062
   0.17804834   0.2064904    0.21087879   0.21587667   0.24140119
   0.24825523   0.26477718   0.27705382   0.2863834    0.30705168
   0.33200621   0.3533226    0.36315791   0.37131441   0.38145415
   0.39473075   0.39902795   0.41836582   0.42773941   0.45297226
   0.47108768   0.47684745   0.497776     0.51577588   0.53802918
   0.56378779   0.58674413   0.59454739   0.60401221   0.61566829
   0.65236855   0.67219513   0.7126268    0.72890201   0.74808542
   0.78578309   0.81282148   0.8335534    0.85490297   0.91766608
   0.9749753    1.06033155   1.11178302   1.12965217]
nelec by numeric integration = 146.0000020635745
    CPU time for vxc     38.11 sec, wall time     15.66 sec
E1 = -4110.09674797112  Ecoul = 1899.9726624591624  Exc = -124.73652164031043
cycle= 10 E= -835.371414272603  delta_E= -5.31e-08  |g|= 0.000171  |ddm|= 0.000774
    CPU time for cycle= 10     38.73 sec, wall time     15.76 sec
  HOMO = -0.101663406489839  LUMO = -0.0207422229642138
  mo_energy =
[-10.04872822 -10.03349369 -10.02946302 -10.02816467 -10.02652998
 -10.02567389 -10.02286964 -10.01906266 -10.01767018 -10.01713373
 -10.0170297  -10.01692423 -10.01445233 -10.0105741  -10.01011345
 -10.00906164 -10.00727251 -10.00651159 -10.00432052 -10.00065133
  -9.99808314  -9.98996947  -0.8804805   -0.83345798  -0.82846356
  -0.79514178  -0.77550579  -0.74346921  -0.73846813  -0.73105206
  -0.71353384  -0.68037815  -0.6474243   -0.62161936  -0.60209009
  -0.57643282  -0.56885294  -0.56685365  -0.53130949  -0.52709088
  -0.5037777   -0.48783715  -0.47513927  -0.46266794  -0.45667645
  -0.43336913  -0.42305059  -0.41356022  -0.40305001  -0.3972821
  -0.3901826   -0.38747184  -0.37058883  -0.35348692  -0.34901427
  -0.34235341  -0.33348428  -0.32916555  -0.32520978  -0.31116448
  -0.30249477  -0.29515025  -0.27249986  -0.26679031  -0.24858891
  -0.23626182  -0.23591292  -0.22330385  -0.22153685  -0.19770419
  -0.17206411  -0.14374073  -0.10166341  -0.02074222   0.01923569
   0.07856446   0.09687877   0.12080698   0.1337046    0.16086058
   0.17804119   0.20648633   0.21087574   0.21587156   0.24139159
   0.24825109   0.2647701    0.27704877   0.28637762   0.30705428
   0.33200218   0.35331803   0.36315314   0.37131746   0.38145146
   0.39472551   0.39903549   0.41835948   0.42773783   0.45296711
   0.47108783   0.47684913   0.49777782   0.51576963   0.53802261
   0.56378437   0.58673846   0.59454723   0.60400904   0.61566385
   0.6523721    0.67219521   0.71263001   0.72889934   0.74808288
   0.78577699   0.81282362   0.83355149   0.85490094   0.91766025
   0.97497454   1.06032265   1.11176397   1.12966325]
nelec by numeric integration = 146.00000206353755
    CPU time for vxc     37.88 sec, wall time     15.65 sec
E1 = -4110.09715128328  Ecoul = 1899.9730711688294  Exc = -124.73652704692132
cycle= 11 E= -835.371414281707  delta_E= -9.1e-09  |g|= 6.86e-05  |ddm|= 0.000326
    CPU time for cycle= 11     38.32 sec, wall time     15.72 sec
  HOMO = -0.101661897702878  LUMO = -0.0207389237125152
  mo_energy =
[-10.04873142 -10.03349417 -10.02946355 -10.02815816 -10.02653924
 -10.02566828 -10.02286159 -10.01905718 -10.01766302 -10.01712896
 -10.01701625 -10.01692078 -10.01444924 -10.0105706  -10.01011177
 -10.00905917 -10.00726027 -10.00651693 -10.00433006 -10.00065384
  -9.99807108  -9.98995551  -0.88047912  -0.83345379  -0.82845992
  -0.79514122  -0.77550485  -0.7434657   -0.73846397  -0.73105159
  -0.71353045  -0.68037478  -0.64742093  -0.62161678  -0.60208863
  -0.57643066  -0.5688503   -0.56685237  -0.53130663  -0.52708761
  -0.50377621  -0.4878353   -0.47513805  -0.46266663  -0.45667365
  -0.43336529  -0.42304888  -0.41355809  -0.40304988  -0.39727963
  -0.39018139  -0.38747026  -0.3705885   -0.35348662  -0.34901372
  -0.34235038  -0.33348261  -0.32916323  -0.32520718  -0.31116435
  -0.30249399  -0.29514834  -0.27249779  -0.26678779  -0.24858786
  -0.23625842  -0.23591022  -0.2233003   -0.22153515  -0.1977011
  -0.17206262  -0.1437379   -0.1016619   -0.02073892   0.01923906
   0.07856813   0.09687979   0.12080975   0.13370643   0.16086253
   0.17804512   0.20648637   0.21087636   0.21587383   0.2413943
   0.24825194   0.26477229   0.27705137   0.28638228   0.30705249
   0.33200446   0.35331946   0.36315424   0.37131691   0.38145234
   0.39472793   0.39903353   0.41836264   0.42774033   0.45297066
   0.4710893    0.47685121   0.49777991   0.51577255   0.538026
   0.56378596   0.58674134   0.594548     0.60400945   0.61566586
   0.65237372   0.6721977    0.71263088   0.72890158   0.74808564
   0.78578141   0.81282557   0.83355745   0.85490499   0.91766691
   0.97497463   1.06032749   1.11176803   1.12966233]
nelec by numeric integration = 146.00000206354702
    CPU time for vxc     38.18 sec, wall time     15.76 sec
E1 = -4110.096839291195  Ecoul = 1899.97275289098  Exc = -124.73652076273024
cycle= 12 E= -835.371414283279  delta_E= -1.57e-09  |g|= 2.96e-05  |ddm|= 0.000136
    CPU time for cycle= 12     38.49 sec, wall time     15.81 sec
  HOMO = -0.101662007011471  LUMO = -0.0207381200302718
  mo_energy =
[-10.04872808 -10.03349353 -10.02946631 -10.02815764 -10.02654029
 -10.02566853 -10.02285805 -10.01905614 -10.01766072 -10.01713054
 -10.01701281 -10.01692424 -10.01444884 -10.01057324 -10.01010953
 -10.00906002 -10.00726453 -10.0065113  -10.00432673 -10.0006501
  -9.99807573  -9.98995977  -0.88047944  -0.83345288  -0.8284601
  -0.79514161  -0.77550526  -0.74346447  -0.7384648   -0.73105202
  -0.71352937  -0.68037537  -0.64742072  -0.62161594  -0.60208873
  -0.57643063  -0.56885002  -0.56685255  -0.53130601  -0.52708822
  -0.50377679  -0.48783507  -0.47513784  -0.46266775  -0.45667386
  -0.43336459  -0.42304829  -0.4135572   -0.4030503   -0.39727821
  -0.39018189  -0.38747048  -0.37058865  -0.3534871   -0.34901374
  -0.34234953  -0.33348267  -0.32916277  -0.32520537  -0.31116434
  -0.30249403  -0.29514866  -0.27249864  -0.26678683  -0.24858857
  -0.23625722  -0.23591053  -0.22330017  -0.22153557  -0.19769995
  -0.17206386  -0.14373832  -0.10166201  -0.02073812   0.01923898
   0.07856927   0.09687959   0.12081103   0.13370613   0.16086099
   0.1780438    0.20648649   0.21087623   0.21587319   0.24139537
   0.24825193   0.26477272   0.27705142   0.28638249   0.30705237
   0.33200406   0.35332107   0.36315375   0.37131633   0.38145219
   0.39472864   0.39903341   0.4183628    0.42773987   0.45297178
   0.47108954   0.47685075   0.49777905   0.51577427   0.53802811
   0.56378608   0.58674311   0.59454828   0.60401135   0.61566752
   0.65237284   0.67219659   0.71263074   0.72890107   0.74808651
   0.78578272   0.81282546   0.83355641   0.85490384   0.91766398
   0.9749749    1.06032852   1.11176831   1.12966099]
nelec by numeric integration = 146.0000020635463
    CPU time for vxc     38.65 sec, wall time     15.83 sec
E1 = -4110.096866630869  Ecoul = 1899.972780238554  Exc = -124.73652077091558
cycle= 13 E= -835.371414283565  delta_E= -2.86e-10  |g|= 1.43e-05  |ddm|= 6.95e-05
    CPU time for cycle= 13     39.16 sec, wall time     15.92 sec
  HOMO = -0.101662121798618  LUMO = -0.0207379648622401
  mo_energy =
[-10.04872613 -10.03349525 -10.02946527 -10.02815964 -10.02654009
 -10.02566931 -10.02285891 -10.01905686 -10.01766164 -10.0171319
 -10.01701344 -10.0169238  -10.01444867 -10.01057412 -10.01010957
 -10.00906004 -10.00726616 -10.00651374 -10.00432521 -10.00065127
  -9.99807651  -9.98995545  -0.88047929  -0.83345369  -0.82846055
  -0.79514174  -0.77550558  -0.74346481  -0.73846547  -0.73105206
  -0.71352991  -0.68037482  -0.64742058  -0.62161622  -0.60208855
  -0.57643105  -0.56885039  -0.56685266  -0.53130636  -0.52708861
  -0.50377695  -0.48783543  -0.47513802  -0.46266776  -0.45667384
  -0.43336507  -0.42304868  -0.4135577   -0.40305024  -0.39727866
  -0.39018201  -0.38747048  -0.37058889  -0.35348711  -0.34901397
  -0.34235017  -0.33348292  -0.32916277  -0.32520596  -0.31116416
  -0.30249405  -0.29514883  -0.27249897  -0.26678717  -0.24858869
  -0.23625749  -0.23591099  -0.2232996   -0.22153566  -0.19770062
  -0.17206393  -0.14373773  -0.10166212  -0.02073796   0.01923958
   0.07856865   0.09687952   0.1208106    0.13370584   0.16086081
   0.17804346   0.20648661   0.21087609   0.21587374   0.24139471
   0.24825182   0.26477251   0.27705114   0.2863832    0.30705262
   0.33200406   0.35332041   0.36315402   0.37131672   0.38145228
   0.39472805   0.39903361   0.41836239   0.42773972   0.45297136
   0.47108915   0.47685044   0.49777879   0.5157735    0.5380276
   0.56378578   0.58674247   0.5945482    0.60401055   0.61566674
   0.65237257   0.67219641   0.71263052   0.7289008    0.74808591
   0.78578224   0.81282492   0.83355768   0.85490393   0.9176635
   0.9749755    1.0603274    1.11176778   1.1296607 ]
nelec by numeric integration = 146.0000020635428
    CPU time for vxc     38.07 sec, wall time     15.72 sec
E1 = -4110.096912181642  Ecoul = 1899.972826674837  Exc = -124.73652165645507
cycle= 14 E= -835.371414283595  delta_E= -2.96e-11  |g|= 1.27e-05  |ddm|= 4.06e-05
    CPU time for cycle= 14     38.64 sec, wall time     15.82 sec
  HOMO = -0.101662319719642  LUMO = -0.0207380981489697
  mo_energy =
[-10.04872706 -10.03349458 -10.02946531 -10.02815916 -10.02654035
 -10.02566881 -10.02285932 -10.01905692 -10.01766181 -10.01713033
 -10.01701406 -10.01692271 -10.01444926 -10.01057381 -10.0101098
 -10.00905989 -10.00726492 -10.00651297 -10.00432781 -10.0006509
  -9.99807551  -9.98995781  -0.88047908  -0.8334536   -0.82846047
  -0.79514179  -0.77550518  -0.74346498  -0.73846508  -0.73105224
  -0.71352984  -0.68037508  -0.64742083  -0.62161638  -0.60208869
  -0.57643098  -0.56885039  -0.56685256  -0.5313063   -0.52708839
  -0.50377699  -0.48783527  -0.47513807  -0.46266776  -0.45667382
  -0.43336504  -0.42304859  -0.41355766  -0.40305032  -0.39727863
  -0.39018193  -0.38747028  -0.37058855  -0.35348727  -0.34901401
  -0.34235012  -0.33348291  -0.32916285  -0.32520599  -0.31116422
  -0.30249405  -0.29514874  -0.27249854  -0.26678722  -0.24858837
  -0.23625766  -0.23591077  -0.22330001  -0.22153573  -0.19770049
  -0.17206376  -0.14373808  -0.10166232  -0.0207381    0.01923918
   0.07856882   0.09687941   0.12081052   0.133706     0.16086099
   0.17804383   0.20648671   0.21087624   0.21587358   0.24139483
   0.24825201   0.26477258   0.27705122   0.28638267   0.30705235
   0.33200426   0.35332053   0.36315394   0.3713165    0.38145219
   0.39472822   0.3990332    0.41836273   0.42773987   0.4529713
   0.47108914   0.4768505    0.49777877   0.51577357   0.53802751
   0.56378587   0.58674245   0.59454801   0.60401075   0.61566686
   0.65237251   0.67219651   0.71263061   0.72890075   0.748086
   0.78578208   0.81282545   0.83355697   0.85490407   0.91766414
   0.97497535   1.06032755   1.11176801   1.12966069]
nelec by numeric integration = 146.00000206354323
    CPU time for vxc     38.02 sec, wall time     15.80 sec
E1 = -4110.096878688801  Ecoul = 1899.9727932975673  Exc = -124.7365217720758
cycle= 15 E= -835.371414283644  delta_E= -4.91e-11  |g|= 4.07e-06  |ddm|= 2.28e-05
    CPU time for cycle= 15     38.45 sec, wall time     15.87 sec
  HOMO = -0.101662504623653  LUMO = -0.0207382394926034
  mo_energy =
[-10.04872894 -10.03349539 -10.02946616 -10.02815896 -10.02653895
 -10.02566934 -10.02285933 -10.01905694 -10.01766201 -10.0171323
 -10.01701427 -10.016925   -10.0144481  -10.01057243 -10.01011063
 -10.00906011 -10.00726392 -10.00651441 -10.00432511 -10.00065165
  -9.99807501  -9.98995801  -0.88048021  -0.83345366  -0.82846029
  -0.79514138  -0.77550602  -0.74346536  -0.73846496  -0.73105163
  -0.71353022  -0.68037554  -0.64742092  -0.62161648  -0.60208898
  -0.57643097  -0.56885049  -0.56685283  -0.53130676  -0.52708847
  -0.50377673  -0.48783562  -0.47513798  -0.46266751  -0.45667426
  -0.43336528  -0.42304883  -0.41355794  -0.40304991  -0.3972791
  -0.39018172  -0.38747115  -0.37058909  -0.35348672  -0.34901374
  -0.34235016  -0.33348281  -0.32916324  -0.32520635  -0.31116427
  -0.30249402  -0.29514869  -0.27249915  -0.26678753  -0.24858851
  -0.23625802  -0.2359107   -0.22330047  -0.22153541  -0.19770096
  -0.17206342  -0.14373836  -0.1016625   -0.02073824   0.01923887
   0.07856831   0.09687971   0.12081007   0.13370579   0.1608616
   0.17804368   0.20648631   0.2108761    0.21587309   0.24139469
   0.24825168   0.26477224   0.27705117   0.28638235   0.30705298
   0.33200358   0.35332001   0.36315402   0.3713168    0.38145214
   0.39472784   0.39903408   0.41836194   0.42773951   0.45297095
   0.47108927   0.47685064   0.49777931   0.51577314   0.53802699
   0.56378578   0.58674209   0.59454833   0.60401033   0.61566637
   0.65237323   0.67219682   0.71263032   0.72890132   0.74808559
   0.78578174   0.81282439   0.83355645   0.85490348   0.91766414
   0.97497423   1.06032754   1.11176768   1.12966177]
nelec by numeric integration = 146.00000206354233
    CPU time for vxc     37.89 sec, wall time     15.60 sec
E1 = -4110.096940574983  Ecoul = 1899.9728552377712  Exc = -124.73652182605072
Extra cycle  E= -835.371414283597  delta_E= 4.73e-11  |g|= 1.16e-05  |ddm|= 2.79e-05
    CPU time for scf_cycle    664.15 sec, wall time    270.30 sec
    CPU time for SCF    664.15 sec, wall time    270.30 sec
converged SCF energy = -835.371414283597
nelec by numeric integration = 146.00000206354233
    CPU time for vxc     38.05 sec, wall time     15.66 sec
 ** Mulliken pop  **
pop of  0 C 1s            1.99080
pop of  0 C 2s            1.15144
pop of  0 C 2px           0.99087
pop of  0 C 2py           0.92604
pop of  0 C 2pz           0.93893
pop of  1 C 1s            1.99133
pop of  1 C 2s            1.12964
pop of  1 C 2px           0.98111
pop of  1 C 2py           0.96111
pop of  1 C 2pz           0.95253
pop of  2 C 1s            1.99085
pop of  2 C 2s            1.17009
pop of  2 C 2px           0.97770
pop of  2 C 2py           0.95818
pop of  2 C 2pz           0.98426
pop of  3 C 1s            1.99175
pop of  3 C 2s            1.11240
pop of  3 C 2px           0.99063
pop of  3 C 2py           0.97693
pop of  3 C 2pz           0.99514
pop of  4 C 1s            1.99215
pop of  4 C 2s            1.06447
pop of  4 C 2px           1.02808
pop of  4 C 2py           0.98371
pop of  4 C 2pz           1.06044
pop of  5 C 1s            1.99098
pop of  5 C 2s            1.11545
pop of  5 C 2px           1.02648
pop of  5 C 2py           0.95512
pop of  5 C 2pz           1.01422
pop of  6 C 1s            1.99150
pop of  6 C 2s            1.08607
pop of  6 C 2px           0.99042
pop of  6 C 2py           0.99933
pop of  6 C 2pz           0.98658
pop of  7 C 1s            1.99102
pop of  7 C 2s            1.19207
pop of  7 C 2px           0.99203
pop of  7 C 2py           0.95928
pop of  7 C 2pz           0.91738
pop of  8 C 1s            1.99144
pop of  8 C 2s            1.08570
pop of  8 C 2px           1.01184
pop of  8 C 2py           0.97470
pop of  8 C 2pz           0.97955
pop of  9 C 1s            1.99126
pop of  9 C 2s            1.14346
pop of  9 C 2px           0.98020
pop of  9 C 2py           0.94671
pop of  9 C 2pz           0.90043
pop of  10 C 1s           1.99165
pop of  10 C 2s           1.19489
pop of  10 C 2px          0.93314
pop of  10 C 2py          0.94740
pop of  10 C 2pz          0.93531
pop of  11 C 1s           1.99058
pop of  11 C 2s           1.07589
pop of  11 C 2px          1.02991
pop of  11 C 2py          0.98533
pop of  11 C 2pz          1.01487
pop of  12 C 1s           1.99032
pop of  12 C 2s           1.06306
pop of  12 C 2px          1.03682
pop of  12 C 2py          0.99048
pop of  12 C 2pz          0.96969
pop of  13 C 1s           1.99102
pop of  13 C 2s           1.04146
pop of  13 C 2px          0.99178
pop of  13 C 2py          0.96181
pop of  13 C 2pz          0.98348
pop of  14 C 1s           1.99093
pop of  14 C 2s           1.17153
pop of  14 C 2px          1.01299
pop of  14 C 2py          0.91526
pop of  14 C 2pz          0.98706
pop of  15 C 1s           1.99228
pop of  15 C 2s           1.23372
pop of  15 C 2px          1.01055
pop of  15 C 2py          0.89514
pop of  15 C 2pz          0.99744
pop of  16 C 1s           1.99074
pop of  16 C 2s           1.14495
pop of  16 C 2px          0.98431
pop of  16 C 2py          0.93997
pop of  16 C 2pz          0.93882
pop of  17 C 1s           1.99178
pop of  17 C 2s           1.25382
pop of  17 C 2px          0.91980
pop of  17 C 2py          0.92440
pop of  17 C 2pz          0.89852
pop of  18 C 1s           1.99124
pop of  18 C 2s           1.08899
pop of  18 C 2px          0.99612
pop of  18 C 2py          1.00095
pop of  18 C 2pz          1.00197
pop of  19 C 1s           1.99090
pop of  19 C 2s           1.14253
pop of  19 C 2px          1.01049
pop of  19 C 2py          0.96781
pop of  19 C 2pz          1.02532
pop of  20 C 1s           1.99130
pop of  20 C 2s           1.07103
pop of  20 C 2px          1.01650
pop of  20 C 2py          1.06081
pop of  20 C 2pz          0.97560
pop of  21 C 1s           1.99101
pop of  21 C 2s           1.18692
pop of  21 C 2px          0.98359
pop of  21 C 2py          0.97597
pop of  21 C 2pz          0.92878
pop of  22 H 1s           0.91346
pop of  23 H 1s           0.92192
pop of  24 H 1s           0.87029
pop of  25 H 1s           0.91991
pop of  26 H 1s           0.96183
pop of  27 H 1s           0.92586
pop of  28 H 1s           0.95824
pop of  29 H 1s           0.90912
pop of  30 H 1s           0.90839
pop of  31 H 1s           0.88589
pop of  32 H 1s           0.92615
pop of  33 H 1s           0.88713
pop of  34 H 1s           0.89369
pop of  35 H 1s           0.90359
 ** Mulliken atomic charges  **
charge of    0C =      0.00191
charge of    1C =     -0.01572
charge of    2C =     -0.08107
charge of    3C =     -0.06685
charge of    4C =     -0.12886
charge of    5C =     -0.10226
charge of    6C =     -0.05390
charge of    7C =     -0.05178
charge of    8C =     -0.04322
charge of    9C =      0.03794
charge of   10C =     -0.00238
charge of   11C =     -0.09657
charge of   12C =     -0.05037
charge of   13C =      0.03046
charge of   14C =     -0.07776
charge of   15C =     -0.12912
charge of   16C =      0.00121
charge of   17C =      0.01167
charge of   18C =     -0.07926
charge of   19C =     -0.13706
charge of   20C =     -0.11524
charge of   21C =     -0.06627
charge of   22H =      0.08654
charge of   23H =      0.07808
charge of   24H =      0.12971
charge of   25H =      0.08009
charge of   26H =      0.03817
charge of   27H =      0.07414
charge of   28H =      0.04176
charge of   29H =      0.09088
charge of   30H =      0.09161
charge of   31H =      0.11411
charge of   32H =      0.07385
charge of   33H =      0.11287
charge of   34H =      0.10631
charge of   35H =      0.09641
Dipole moment(X, Y, Z, Debye):  0.25223, -0.60629,  0.39597
nelec by numeric integration = 146.00000206354233
    CPU time for vxc     37.85 sec, wall time     15.72 sec
E1 = -4110.096940574983  Ecoul = 1899.9728552377712  Exc = -124.73652182605072
nelec by numeric integration = 146.00000206354233
    CPU time for vxc     37.68 sec, wall time     15.67 sec
E1 = -4110.096940574983  Ecoul = 1899.9728552377712  Exc = -124.73652182605072
