System: uname_result(system='Linux', node='cosmopc18', release='5.15.0-97-generic', version='#107-Ubuntu SMP Wed Feb 7 13:26:48 UTC 2024', machine='x86_64')  Threads 4
Python 3.11.8 (main, Feb 26 2024, 21:39:34) [GCC 11.2.0]
numpy 1.26.4  scipy 1.11.4
Date: Tue Apr  9 10:39:52 2024
PySCF version 2.3.0
PySCF path  /home/saade/miniconda3/envs/tutorial/lib/python3.11/site-packages/pyscf

[ENV] PYSCFAD_BACKEND torch
[CONFIG] conf_file None
[INPUT] verbose = 5
[INPUT] max_memory = 4000 
[INPUT] num. atoms = 36
[INPUT] num. electrons = 146
[INPUT] charge = 0
[INPUT] spin (= nelec alpha-beta = 2S) = 0
[INPUT] symmetry False subgroup None
[INPUT] Mole.unit = angstrom
[INPUT] Symbol           X                Y                Z      unit          X                Y                Z       unit  Magmom
[INPUT]  1 C     -0.151116000000   3.580927000000   0.677739000000 AA   -0.285567853040   6.766971302060   1.280741093937 Bohr   0.0
[INPUT]  2 C     -0.150304000000   3.705981000000  -0.736468000000 AA   -0.284033395427   7.003289112842  -1.391722819506 Bohr   0.0
[INPUT]  3 C      0.029747000000   5.077742000000   1.371440000000 AA    0.056213683027   9.595541711201   2.591645996274 Bohr   0.0
[INPUT]  4 C     -0.006345000000   2.293009000000   1.435082000000 AA   -0.011990312260   4.333159011163   2.711911946293 Bohr   0.0
[INPUT]  5 C      0.002821000000   4.927937000000  -1.387758000000 AA    0.005330917397   9.312451289111  -2.622482547174 Bohr   0.0
[INPUT]  6 C     -0.160975000000   2.418285000000  -1.406843000000 AA   -0.304198662902   4.569896341144  -2.658547970261 Bohr   0.0
[INPUT]  7 C      0.246878000000   6.150755000000  -0.659442000000 AA    0.466531806180  11.623242409299  -1.246164775035 Bohr   0.0
[INPUT]  8 C      0.076799000000   6.124704000000   0.744799000000 AA    0.145129076640  11.574013154028   1.407466127850 Bohr   0.0
[INPUT]  9 C     -0.169058000000   1.252873000000   0.623640000000 AA   -0.319473319167   2.367586838862   1.178508800324 Bohr   0.0
[INPUT] 10 C     -0.009280000000   1.446768000000  -0.644181000000 AA   -0.017536658436   2.733995285785  -1.217325664648 Bohr   0.0
[INPUT] 11 C     -0.103423000000   0.072867000000   1.369000000000 AA   -0.195441144981   0.137698673519   2.587035064530 Bohr   0.0
[INPUT] 12 C     -0.103583000000  -0.031590000000  -1.483106000000 AA   -0.195743501161  -0.059696448275  -2.802664153699 Bohr   0.0
[INPUT] 13 C     -0.039229000000  -1.223192000000   0.921781000000 AA   -0.074132066141  -2.311497877759   1.741913636828 Bohr   0.0
[INPUT] 14 C      0.011818000000  -1.202705000000  -0.809489000000 AA    0.022332783340  -2.272783058645  -1.529712510848 Bohr   0.0
[INPUT] 15 C      0.077543000000  -2.611153000000   1.468536000000 AA    0.146535032877  -4.934364039336   2.775130844064 Bohr   0.0
[INPUT] 16 C      0.025491000000  -2.418838000000  -1.474380000000 AA    0.048171008641  -4.570941359691  -2.786174403536 Bohr   0.0
[INPUT] 17 C      0.072618000000  -3.776987000000   0.684277000000 AA    0.137228131714  -7.137471006043   1.293096123339 Bohr   0.0
[INPUT] 18 C      0.056213000000  -3.848961000000  -0.652790000000 AA    0.106227174640  -7.273482154132  -1.233594316855 Bohr   0.0
[INPUT] 19 C      0.137107000000  -4.965901000000   1.375068000000 AA    0.259094679761  -9.384192851704   2.598501922653 Bohr   0.0
[INPUT] 20 C      0.135244000000  -4.974061000000  -1.350981000000 AA    0.255574119991  -9.399613016880  -2.552984089491 Bohr   0.0
[INPUT] 21 C     -0.074662000000  -6.188869000000   0.744776000000 AA   -0.141090731912 -11.695267430811   1.407422664149 Bohr   0.0
[INPUT] 22 C      0.048837000000  -5.946544000000  -0.577693000000 AA    0.092288554745 -11.237339547676  -1.091681554078 Bohr   0.0
[INPUT] 23 H     -0.065932000000   5.000281000000   2.700135000000 AA   -0.124593422845   9.449161635866   5.102515649352 Bohr   0.0
[INPUT] 24 H     -0.050663000000   2.290672000000   2.595908000000 AA   -0.095739194649   4.328742721210   4.905555164567 Bohr   0.0
[INPUT] 25 H     -0.031057000000   4.958782000000  -2.213770000000 AA   -0.058689224251   9.370739891423  -4.183419002778 Bohr   0.0
[INPUT] 26 H      0.027473000000   2.619568000000  -2.712645000000 AA    0.051916445820   4.950266084675  -5.126156123171 Bohr   0.0
[INPUT] 27 H      0.174325000000   7.147106000000  -1.249870000000 AA    0.329426506665  13.506072923236  -2.361911991310 Bohr   0.0
[INPUT] 28 H     -0.026460000000   7.242108000000   1.247556000000 AA   -0.050002153256  13.685600684522   2.357539165058 Bohr   0.0
[INPUT] 29 H     -0.042025000000  -0.032291000000   2.726863000000 AA   -0.079415740385  -0.061021146288   5.153024249210 Bohr   0.0
[INPUT] 30 H     -0.053948000000   0.009453000000  -2.328434000000 AA   -0.101946944968   0.017863581056  -4.400102559126 Bohr   0.0
[INPUT] 31 H     -0.088770000000  -2.595091000000   2.684698000000 AA   -0.167750988078  -4.904011258324   5.073343947168 Bohr   0.0
[INPUT] 32 H     -0.071506000000  -2.615818000000  -2.504992000000 AA   -0.135126756263  -4.943179611708  -4.733748824226 Bohr   0.0
[INPUT] 33 H     -0.019972000000  -4.852059000000   2.569547000000 AA   -0.037741610160  -9.169062650231   4.855740094198 Bohr   0.0
[INPUT] 34 H      0.047810000000  -4.765830000000  -2.341367000000 AA    0.090347806015  -9.006113456236  -4.424542387095 Bohr   0.0
[INPUT] 35 H     -0.191996000000  -7.045538000000   1.141845000000 AA   -0.362819857012 -13.314137220216   2.157774326704 Bohr   0.0
[INPUT] 36 H     -0.028119000000  -6.950920000000  -1.193142000000 AA   -0.053137208897 -13.135335113762  -2.254711607716 Bohr   0.0
[INPUT] ---------------- BASIS SET ---------------- 
[INPUT] l, kappa, [nprim/nctr], expnt,             c_1 c_2 ...
[INPUT] H
[INPUT] 0    0    [3    /1   ]  3.42525091        0.15432897
                                0.62391373        0.53532814
                                0.1688554         0.44463454
[INPUT] C
[INPUT] 0    0    [3    /1   ]  71.616837         0.15432897
                                13.045096         0.53532814
                                3.5305122         0.44463454
[INPUT] 0    0    [3    /1   ]  2.9412494         -0.09996723
                                0.6834831         0.39951283
                                0.2222899         0.70011547
[INPUT] 1    0    [3    /1   ]  2.9412494         0.15591627
                                0.6834831         0.60768372
                                0.2222899         0.39195739

nuclear repulsion = 1489.94479891023
number of shells = 80
number of NR pGTOs = 372
number of NR cGTOs = 124
basis = sto3g
ecp = {}
CPU time:      8480.90
atom C rad-grids = 99, ang-grids = [ 50  50  50  50  50  50  50  50  50  50  50  50  50  50  50  50  50  50
  50  50  50  50  50  50  50  50  50  50  50  50  50  86  86  86  86  86
  86  86  86  86  86  86  86 434 434 434 434 434 434 434 434 434 590 590
 590 590 590 590 590 590 590 590 590 590 590 590 590 590 590 590 590 590
 590 590 590 590 590 590 590 434 434 434 434 434 434 434 434 434 434 434
 434 434 434 434 434 434 434 434 434]
atom H rad-grids = 99, ang-grids = [ 50  50  50  50  50  50  50  50  50  50  50  50  50  50  50  50  50  50
  50  50  50  50  50  50  50  50  50  50  86  86  86  86  86  86  86 434
 434 434 434 434 434 434 434 590 590 590 590 590 590 590 590 590 590 590
 590 590 590 590 590 590 590 590 590 590 590 590 590 590 590 434 434 434
 434 434 434 434 434 434 434 434 434 434 434 434 434 434 434 434 434 434
 434 434 434 434 434 434 434 434 434]
tot_boxes 5580, boxes in each direction [ 8 29 16]
Padding 0 grids
tot grids = 1157832


******** <class 'pyscf.dft.rks.RKS'> ********
method = RKS
initial guess = minao
damping factor = 0
level_shift factor = 0
DIIS = <class 'pyscf.scf.diis.CDIIS'>
diis_start_cycle = 1
diis_space = 8
SCF conv_tol = 1e-10
SCF conv_tol_grad = None
SCF max_cycles = 50
direct_scf = True
direct_scf_tol = 1e-13
chkfile to save SCF result = /home/saade/mlelec/tutorials/tmpvlzqxgyj
max_memory 4000 MB (current use 636 MB)
XC library pyscf.dft.libxc version 6.1.0
    S. Lehtola, C. Steigemann, M. J.T. Oliveira, and M. A.L. Marques.,  SoftwareX 7, 1–5 (2018)
XC functionals = b3lypg
    P. J. Stephens, F. J. Devlin, C. F. Chabalowski, and M. J. Frisch.,  J. Phys. Chem. 98, 11623 (1994)
radial grids: 
    Treutler-Ahlrichs [JCP 102, 346 (1995); DOI:10.1063/1.469408] (M4) radial grids
    
becke partition: Becke, JCP 88, 2547 (1988); DOI:10.1063/1.454033
pruning grids: <function nwchem_prune at 0x7f9db5616ca0>
grids dens level: 3
symmetrized grids: False
atomic radii adjust function: <function treutler_atomic_radii_adjust at 0x7f9db5617380>
User specified grid scheme (99, 590)
small_rho_cutoff = 1e-07
Set gradient conv threshold to 1e-05
Initial guess from minao.
nelec by numeric integration = 145.26834950805102
    CPU time for vxc     36.99 sec, wall time     15.64 sec
E1 = -4080.092334234736  Ecoul = 1874.8778396582757  Exc = -125.99586796789573
init E= -841.265563634128
cond(S) = 20.359733742798507
    CPU time for initialize scf     46.48 sec, wall time     17.95 sec
  HOMO = -0.19426506490172  LUMO = -0.158941182705039
  mo_energy =
[-1.01381425e+01 -1.01325495e+01 -1.01310540e+01 -1.01246234e+01
 -1.01209543e+01 -1.01153999e+01 -1.01130185e+01 -1.01080530e+01
 -1.01057260e+01 -1.01056145e+01 -1.01044855e+01 -1.00984464e+01
 -1.00976625e+01 -1.00963562e+01 -1.00946900e+01 -1.00896023e+01
 -1.00872867e+01 -1.00870328e+01 -1.00847135e+01 -1.00829452e+01
 -1.00766333e+01 -1.00746318e+01 -1.10306550e+00 -1.09813247e+00
 -1.02293658e+00 -9.81481781e-01 -9.51466177e-01 -9.39891697e-01
 -9.15100427e-01 -8.96291061e-01 -8.65948235e-01 -8.44266813e-01
 -7.89114547e-01 -7.67300410e-01 -7.15294117e-01 -7.02955710e-01
 -6.97345005e-01 -6.90036038e-01 -6.68094383e-01 -6.40450011e-01
 -6.02145178e-01 -5.78009762e-01 -5.53476641e-01 -5.51626535e-01
 -5.35398294e-01 -5.20606142e-01 -5.09561537e-01 -4.89851653e-01
 -4.84271517e-01 -4.78269069e-01 -4.76180491e-01 -4.71119951e-01
 -4.65599175e-01 -4.62172997e-01 -4.50709382e-01 -4.37420291e-01
 -4.23044002e-01 -4.07184307e-01 -4.02192918e-01 -3.83512950e-01
 -3.78992763e-01 -3.69914300e-01 -3.54914893e-01 -3.51008098e-01
 -3.39816369e-01 -3.29780336e-01 -3.17253671e-01 -3.10395892e-01
 -3.05557349e-01 -2.95394710e-01 -2.84684133e-01 -2.53450971e-01
 -1.94265065e-01 -1.58941183e-01 -9.51588645e-02 -5.23658296e-02
 -4.14612168e-02 -3.58224858e-02  2.10285860e-03  1.45971332e-02
  3.63445611e-02  5.76483062e-02  8.96692772e-02  1.00972585e-01
  1.05472445e-01  1.19317291e-01  1.49859070e-01  1.53598700e-01
  1.59450060e-01  1.67855815e-01  1.74128114e-01  1.96918943e-01
  2.16680383e-01  2.22762171e-01  2.33520321e-01  2.43243702e-01
  2.60860911e-01  2.79744347e-01  3.17612263e-01  3.34206941e-01
  3.52258757e-01  3.57957316e-01  3.83825405e-01  4.04501086e-01
  4.09785044e-01  4.31031092e-01  4.43609521e-01  4.69633009e-01
  4.83878467e-01  5.00210253e-01  5.17371043e-01  5.31573290e-01
  5.47018576e-01  5.54634740e-01  5.67109075e-01  6.12895070e-01
  6.51156057e-01  6.91312326e-01  7.10526436e-01  7.27546147e-01
  7.55427839e-01  7.80004748e-01  8.11774076e-01  8.18638969e-01]
nelec by numeric integration = 146.0000010096001
    CPU time for vxc     38.46 sec, wall time     15.86 sec
E1 = -4095.2664012196  Ecoul = 1894.3522455562463  Exc = -124.63731440950446
cycle= 1 E= -835.60667116263  delta_E= 5.66  |g|= 0.363  |ddm|= 9.26
    CPU time for cycle= 1     38.74 sec, wall time     15.90 sec
  HOMO = -0.0763488370343879  LUMO = 0.0312404376169152
  mo_energy =
[-10.07725921 -10.05887248 -10.04862119 -10.0368776  -10.03533702
 -10.02567702 -10.01710091 -10.01165327 -10.00828617 -10.00802211
 -10.00518205  -9.99857921  -9.99749931  -9.99449238  -9.99079506
  -9.96317662  -9.95019606  -9.94277167  -9.94047216  -9.91402918
  -9.86039481  -9.78940216  -0.85832184  -0.8392675   -0.7999712
  -0.77019686  -0.74325377  -0.73211693  -0.71235741  -0.68849103
  -0.67804378  -0.64689224  -0.63182225  -0.58874276  -0.5831066
  -0.56078015  -0.55093411  -0.54539757  -0.51687076  -0.50131926
  -0.47941908  -0.45992238  -0.44860594  -0.4373605   -0.42508628
  -0.41766408  -0.40166326  -0.3910788   -0.38342507  -0.38040543
  -0.37350251  -0.36566094  -0.36036713  -0.3555482   -0.34600704
  -0.3317207   -0.3230799   -0.30974415  -0.30539858  -0.28833078
  -0.27261595  -0.26976303  -0.25540949  -0.23509443  -0.2320423
  -0.21786271  -0.20129958  -0.19877071  -0.18148296  -0.16466281
  -0.15779786  -0.14183554  -0.07634884   0.03124044   0.04275236
   0.08872841   0.1120998    0.11306906   0.1500185    0.17811163
   0.18343514   0.2034561    0.22987172   0.25088522   0.25694602
   0.27093883   0.28241335   0.28850451   0.31242938   0.31466604
   0.32423993   0.33954301   0.35071462   0.3536197    0.36158739
   0.3855531    0.39958677   0.40690186   0.45903491   0.4892937
   0.50315725   0.51521348   0.53236581   0.54939755   0.56833798
   0.59537832   0.61888059   0.62255285   0.63439467   0.64140599
   0.66528259   0.6912836    0.69791877   0.70671397   0.76169419
   0.79648679   0.82229467   0.86821831   0.87817768   0.90355515
   0.93015937   0.94649632   0.97766556   1.03105204]
nelec by numeric integration = 146.00000108715963
    CPU time for vxc     37.84 sec, wall time     15.69 sec
E1 = -4089.1508870173516  Ecoul = 1888.3975010364977  Exc = -124.52213655944449
cycle= 2 E= -835.33072363007  delta_E= 0.276  |g|= 0.847  |ddm|= 2.27
    CPU time for cycle= 2     38.18 sec, wall time     15.75 sec
  HOMO = -0.0811544189843669  LUMO = -0.0205913947373907
  mo_energy =
[-10.02750888 -10.01811328 -10.01617128 -10.0152098  -10.01005473
 -10.0076939  -10.00670065 -10.0060434  -10.00336762 -10.00179585
  -9.99975706  -9.99877347  -9.99735539  -9.99694558  -9.99576593
  -9.99479766  -9.9930081   -9.99093096  -9.98872353  -9.98856668
  -9.98397031  -9.96499168  -0.85410248  -0.851977    -0.79900629
  -0.76831513  -0.75094918  -0.73869851  -0.72648973  -0.71005771
  -0.68939404  -0.67018913  -0.63387223  -0.61019005  -0.58015801
  -0.56927115  -0.5624657   -0.55921564  -0.53947788  -0.51463153
  -0.48915785  -0.46784824  -0.44729105  -0.44217721  -0.43059722
  -0.42534405  -0.41186579  -0.39152504  -0.39065779  -0.38142271
  -0.37438974  -0.36843769  -0.36143526  -0.35199947  -0.35161039
  -0.34478525  -0.33263989  -0.31486903  -0.30463374  -0.29278445
  -0.28657998  -0.2702071   -0.26117816  -0.24845406  -0.24517896
  -0.23212446  -0.22397622  -0.2147539   -0.20709951  -0.1917828
  -0.18566626  -0.14969236  -0.08115442  -0.02059139   0.04371095
   0.08894512   0.10273316   0.11043282   0.14908867   0.16556033
   0.17666787   0.20286761   0.21814742   0.22954791   0.2490255
   0.26338354   0.2878017    0.2955832    0.30658942   0.31018576
   0.3256531    0.33812178   0.35325585   0.35981243   0.37021996
   0.3747829    0.40241491   0.40636308   0.45294767   0.46600307
   0.49421629   0.50291062   0.53018496   0.55006243   0.56307262
   0.57911938   0.58946171   0.61384048   0.62681137   0.63974012
   0.66841376   0.67903987   0.69225872   0.70551766   0.7141535
   0.76849238   0.80191999   0.83675878   0.85746119   0.87812611
   0.8965936    0.92470112   0.96770501   0.96933518]
nelec by numeric integration = 146.00000099894368
    CPU time for vxc     37.73 sec, wall time     15.67 sec
E1 = -4090.7191901407805  Ecoul = 1889.6330768803266  Exc = -124.49667480229711
cycle= 3 E= -835.637989152523  delta_E= -0.307  |g|= 0.257  |ddm|= 2.07
    CPU time for cycle= 3     38.18 sec, wall time     15.74 sec
  HOMO = -0.0922594980975088  LUMO = -0.0325364413351755
  mo_energy =
[-10.05157613 -10.03932441 -10.0318213  -10.02842339 -10.02692442
 -10.02652583 -10.02171499 -10.02051823 -10.02003707 -10.01991262
 -10.0193471  -10.01871135 -10.01671249 -10.01566466 -10.01503594
 -10.01355584 -10.01319364 -10.01078217 -10.00992666 -10.00053513
  -9.99958482  -9.98064634  -0.86954526  -0.86761034  -0.80951047
  -0.77867522  -0.76268908  -0.75558653  -0.73611508  -0.72415625
  -0.69918573  -0.68505219  -0.63535815  -0.62863197  -0.58897971
  -0.58066226  -0.57362716  -0.56807122  -0.55143092  -0.52077385
  -0.49918263  -0.47811107  -0.45510491  -0.45291722  -0.44069699
  -0.43391383  -0.41780073  -0.3979395   -0.39430376  -0.38905274
  -0.38277576  -0.38115787  -0.37714899  -0.3694087   -0.36653887
  -0.35304906  -0.34088509  -0.32627105  -0.31648425  -0.30030544
  -0.29757271  -0.28114599  -0.26951801  -0.25889836  -0.2551201
  -0.24592435  -0.23480441  -0.22463971  -0.21736858  -0.20776789
  -0.19519126  -0.1624311   -0.0922595   -0.03253644   0.03221052
   0.07875298   0.09059975   0.09516727   0.13429246   0.15450449
   0.16752845   0.19315021   0.21463068   0.2219665    0.23820988
   0.25089216   0.28179418   0.28552655   0.2948587    0.30029444
   0.3096722    0.31875941   0.34373811   0.35058823   0.36456
   0.36980681   0.38605238   0.40312501   0.44490154   0.46801408
   0.48704962   0.49521365   0.51809668   0.53948604   0.54485567
   0.56940086   0.58527644   0.60146212   0.61697519   0.6274204
   0.65224277   0.66423807   0.68098764   0.69323708   0.70089173
   0.74785355   0.78664713   0.82618675   0.84565209   0.86388034
   0.88500242   0.91305597   0.95123956   0.9555458 ]
nelec by numeric integration = 146.0000010103347
    CPU time for vxc     38.11 sec, wall time     15.77 sec
E1 = -4092.1349554402896  Ecoul = 1891.0546784219923  Exc = -124.52657413100502
cycle= 4 E= -835.662052239074  delta_E= -0.0241  |g|= 0.114  |ddm|= 0.676
    CPU time for cycle= 4     38.66 sec, wall time     15.86 sec
  HOMO = -0.09412979046258  LUMO = -0.0322191818790565
  mo_energy =
[-10.04192251 -10.03233469 -10.03133611 -10.02733017 -10.02682757
 -10.02420017 -10.02268611 -10.02134142 -10.02073884 -10.01919829
 -10.0190296  -10.01866434 -10.01746706 -10.01691936 -10.0165468
 -10.01566383 -10.01562441 -10.01484894 -10.01390072 -10.00923299
 -10.00732951  -9.99366036  -0.8700393   -0.86384084  -0.81201304
  -0.77886792  -0.7606977   -0.75587941  -0.73796329  -0.72232204
  -0.69966626  -0.68440475  -0.63796371  -0.62778417  -0.59120674
  -0.57768666  -0.57482949  -0.56877094  -0.55044481  -0.52185471
  -0.49905615  -0.47814249  -0.45588509  -0.45276331  -0.4416964
  -0.43454811  -0.41679444  -0.39888454  -0.39792878  -0.3914086
  -0.38375614  -0.37944763  -0.37461467  -0.36908878  -0.36606957
  -0.35404458  -0.34088105  -0.32520808  -0.31830702  -0.30244557
  -0.29687819  -0.28186591  -0.27049252  -0.25871174  -0.25645596
  -0.2465783   -0.234908    -0.22293744  -0.21994365  -0.20666708
  -0.19710029  -0.16403621  -0.09412979  -0.03221918   0.03076218
   0.07671756   0.09018462   0.09472171   0.13461411   0.15512551
   0.1713355    0.19212124   0.21284541   0.22457397   0.23601961
   0.25281001   0.27913774   0.28537953   0.29521053   0.30343586
   0.31228697   0.32196003   0.34334119   0.35025593   0.36171214
   0.36681317   0.38656214   0.39784966   0.44338817   0.46322106
   0.48533708   0.49282412   0.51656176   0.53785969   0.54605541
   0.56931409   0.58095459   0.60163117   0.61642116   0.62732924
   0.65161456   0.66284009   0.67935921   0.69417865   0.70126023
   0.75096545   0.78634729   0.83006125   0.84687489   0.86380924
   0.88514439   0.91086264   0.95057695   0.96168699]
nelec by numeric integration = 146.00000102934135
    CPU time for vxc     37.93 sec, wall time     15.70 sec
E1 = -4091.955161378828  Ecoul = 1890.8724210428315  Exc = -124.528239459671
cycle= 5 E= -835.666180885439  delta_E= -0.00413  |g|= 0.0461  |ddm|= 0.221
    CPU time for cycle= 5     38.39 sec, wall time     15.78 sec
  HOMO = -0.0937846511029923  LUMO = -0.0301620437814437
  mo_energy =
[-10.04296614 -10.03336784 -10.02998882 -10.02502787 -10.02322741
 -10.02204391 -10.02004239 -10.01989545 -10.01765734 -10.01760357
 -10.01730978 -10.01693798 -10.01616169 -10.01576574 -10.01573721
 -10.01490021 -10.01287311 -10.01227809 -10.01091014 -10.01079632
  -9.99720271  -9.99635561  -0.86851024  -0.86444205  -0.80938826
  -0.77720323  -0.76031287  -0.75459557  -0.73704981  -0.72169935
  -0.69847198  -0.68369682  -0.63662689  -0.62659753  -0.5890692
  -0.57793318  -0.57387783  -0.5678319   -0.55002526  -0.52069397
  -0.49844576  -0.47724464  -0.45501234  -0.4518518   -0.44043974
  -0.43361941  -0.41702057  -0.39744844  -0.39603117  -0.38977613
  -0.3829692   -0.37892795  -0.37455495  -0.36804885  -0.36551166
  -0.35289099  -0.33992786  -0.32478838  -0.31628881  -0.30089427
  -0.29661358  -0.28040987  -0.26970351  -0.25800115  -0.25528455
  -0.24550982  -0.23392613  -0.22314926  -0.21896632  -0.20579393
  -0.19594539  -0.16268438  -0.09378465  -0.03016204   0.03232993
   0.07769017   0.09091372   0.09581397   0.13547381   0.15624261
   0.17050981   0.19356404   0.21511678   0.22410082   0.23828196
   0.25349995   0.28138817   0.28607332   0.29591008   0.30271407
   0.31230938   0.32218953   0.34443352   0.3507067    0.36311795
   0.36920766   0.38765369   0.40104173   0.44504743   0.46533899
   0.48610141   0.49395055   0.51720823   0.53875119   0.54721663
   0.57042955   0.58321354   0.60272692   0.61690614   0.62809852
   0.65282224   0.66447023   0.68058169   0.69497342   0.70238859
   0.75175873   0.78742622   0.82961527   0.84690707   0.86453532
   0.88686289   0.913711     0.95240292   0.95967886]
nelec by numeric integration = 146.00000102031336
    CPU time for vxc     38.47 sec, wall time     15.84 sec
E1 = -4091.9050400871515  Ecoul = 1890.8173322730204  Exc = -124.52388795524874
cycle= 6 E= -835.666796859152  delta_E= -0.000616  |g|= 0.0195  |ddm|= 0.0804
    CPU time for cycle= 6     39.11 sec, wall time     15.94 sec
  HOMO = -0.0939285713889974  LUMO = -0.0301226581979297
  mo_energy =
[-10.04404045 -10.03354322 -10.02939327 -10.02266644 -10.02143191
 -10.02116028 -10.01966652 -10.01823918 -10.01749319 -10.01739053
 -10.01691643 -10.0164763  -10.01615447 -10.01517374 -10.01510988
 -10.01392337 -10.01345317 -10.01266674 -10.01242681 -10.01099472
  -9.99787887  -9.99682943  -0.86810889  -0.86432025  -0.80917852
  -0.77730326  -0.76041418  -0.75428228  -0.73660639  -0.72145933
  -0.69845116  -0.68327854  -0.63678597  -0.6263025   -0.58890924
  -0.57792219  -0.5735417   -0.56769232  -0.54974716  -0.52068912
  -0.49830074  -0.47698358  -0.4548685   -0.45166646  -0.44026464
  -0.43343302  -0.41664491  -0.39748161  -0.39624406  -0.38969384
  -0.38277139  -0.37882004  -0.37438929  -0.3676498   -0.36528675
  -0.35265801  -0.33990814  -0.32454053  -0.31620111  -0.30086428
  -0.29641095  -0.28037339  -0.26950155  -0.2581843   -0.25511317
  -0.24529517  -0.23408376  -0.22315225  -0.21845602  -0.20561671
  -0.19563312  -0.16236969  -0.09392857  -0.03012266   0.03267005
   0.07820649   0.09141196   0.09604114   0.13590254   0.15593846
   0.17050546   0.1933439    0.21481979   0.22392011   0.23827561
   0.25316902   0.28135298   0.28631634   0.29617091   0.30267297
   0.3123889    0.32253342   0.34470002   0.35109155   0.3632945
   0.36941304   0.38801906   0.40100957   0.44510218   0.46501707
   0.48679631   0.49443755   0.51809053   0.53962793   0.54733187
   0.57060687   0.58305267   0.60277368   0.61757022   0.6284682
   0.65327356   0.66459861   0.68122206   0.69540767   0.70166902
   0.75157249   0.78765891   0.82929213   0.84714119   0.86470062
   0.88706331   0.91364227   0.95254377   0.95979953]
nelec by numeric integration = 146.00000102009645
    CPU time for vxc     38.35 sec, wall time     15.80 sec
E1 = -4091.897097347447  Ecoul = 1890.8088187207309  Exc = -124.52343371208279
cycle= 7 E= -835.666913428571  delta_E= -0.000117  |g|= 0.00955  |ddm|= 0.0221
    CPU time for cycle= 7     38.89 sec, wall time     15.89 sec
  HOMO = -0.0939277686264899  LUMO = -0.0301000597208844
  mo_energy =
[-10.0434525  -10.03337524 -10.02952331 -10.02274909 -10.02161971
 -10.02048665 -10.0195052  -10.01817992 -10.01736362 -10.01718754
 -10.0166448  -10.01647682 -10.01641289 -10.01529346 -10.01490744
 -10.01379618 -10.01334378 -10.01286575 -10.01271045 -10.01115451
  -9.99832369  -9.99722144  -0.86809108  -0.86412968  -0.80929737
  -0.77735524  -0.76034939  -0.75430845  -0.73659632  -0.72148512
  -0.69838517  -0.68321437  -0.63693798  -0.62618214  -0.58896985
  -0.577795    -0.57354605  -0.56769153  -0.54969488  -0.52073873
  -0.49827994  -0.47698108  -0.45483489  -0.45162748  -0.44023409
  -0.43339298  -0.41673092  -0.39752469  -0.39633136  -0.38971263
  -0.38273296  -0.37873191  -0.37424479  -0.3675786   -0.36518763
  -0.35270619  -0.33986906  -0.324462    -0.31622333  -0.30086847
  -0.29633494  -0.28039454  -0.26951592  -0.25815915  -0.2551416
  -0.24532446  -0.23404526  -0.2231284   -0.21841828  -0.20556658
  -0.19559828  -0.16237493  -0.09392777  -0.03010006   0.03268623
   0.07825505   0.09147088   0.09611286   0.13588266   0.15594884
   0.1705533    0.19333404   0.2147509    0.22400063   0.23822246
   0.25337191   0.28129589   0.28637342   0.29620811   0.30272962
   0.312499     0.32266617   0.3448313    0.35117827   0.36328511
   0.36938784   0.38813039   0.40082249   0.44522006   0.46485937
   0.48674159   0.49437853   0.51820369   0.53964828   0.54738407
   0.57054695   0.58289559   0.60285535   0.61755621   0.62853065
   0.65340465   0.66469547   0.68112404   0.69548601   0.70155066
   0.75187464   0.78769453   0.82936744   0.84717743   0.8647028
   0.88688038   0.91340525   0.9525265    0.95984032]
nelec by numeric integration = 146.0000010199755
    CPU time for vxc     37.64 sec, wall time     15.66 sec
E1 = -4091.894503522972  Ecoul = 1890.8062235024252  Exc = -124.52346013144967
cycle= 8 E= -835.666941241769  delta_E= -2.78e-05  |g|= 0.00496  |ddm|= 0.00969
    CPU time for cycle= 8     38.03 sec, wall time     15.72 sec
  HOMO = -0.0939498983208803  LUMO = -0.0301214941432922
  mo_energy =
[-10.04364952 -10.0336081  -10.02919052 -10.02291926 -10.02178941
 -10.02069164 -10.0192857  -10.01799909 -10.01728998 -10.01726499
 -10.01659281 -10.01651585 -10.01643987 -10.01549991 -10.01472075
 -10.01330517 -10.01320825 -10.01281912 -10.01255203 -10.01130504
  -9.99874136  -9.99759553  -0.86799733  -0.86427518  -0.8093366
  -0.77734526  -0.76046458  -0.7541881   -0.73660612  -0.72151291
  -0.69849044  -0.68320533  -0.63705469  -0.62607936  -0.58897857
  -0.5779121   -0.57346454  -0.56769901  -0.54973452  -0.52080776
  -0.49828524  -0.47702021  -0.45489001  -0.45163638  -0.44024888
  -0.43337777  -0.41680557  -0.39755764  -0.39638021  -0.38968766
  -0.38268164  -0.37870228  -0.37427321  -0.36747506  -0.36518473
  -0.35270812  -0.3398917   -0.32438071  -0.316221    -0.30087554
  -0.29639729  -0.28036642  -0.2695047   -0.25825135  -0.25509881
  -0.24529013  -0.23401265  -0.22320983  -0.21841179  -0.20555292
  -0.19569027  -0.16238373  -0.0939499   -0.03012149   0.03266916
   0.07822103   0.09143898   0.0961141    0.13591152   0.15592025
   0.17050612   0.19330788   0.21477203   0.22399672   0.23820535
   0.25339677   0.28128933   0.28645674   0.29622166   0.30263711
   0.31248031   0.32290119   0.34486472   0.35119034   0.36333412
   0.36939416   0.38827881   0.40080713   0.44511052   0.46472438
   0.48670139   0.49435763   0.51823446   0.53959991   0.54748082
   0.57049348   0.58280546   0.60281994   0.6174988    0.62850489
   0.65343975   0.66472903   0.6810842    0.6955883    0.70142579
   0.75183994   0.78774724   0.82921158   0.84709421   0.86469638
   0.88684612   0.91339933   0.9525943    0.95966329]
nelec by numeric integration = 146.0000010197801
    CPU time for vxc     37.80 sec, wall time     15.65 sec
E1 = -4091.8975874625776  Ecoul = 1890.809339015119  Exc = -124.52350119205744
cycle= 9 E= -835.666950729288  delta_E= -9.49e-06  |g|= 0.00113  |ddm|= 0.00747
    CPU time for cycle= 9     38.26 sec, wall time     15.72 sec
  HOMO = -0.0939974834880209  LUMO = -0.030166418277273
  mo_energy =
[-10.04360119 -10.03356626 -10.02925108 -10.02282874 -10.02176554
 -10.02055734 -10.01935714 -10.01819942 -10.0172982  -10.01718763
 -10.01651735 -10.01641688 -10.01636701 -10.01527847 -10.01479977
 -10.01343686 -10.01330037 -10.01292245 -10.01250796 -10.01116256
  -9.99882374  -9.99784385  -0.86804765  -0.86421917  -0.80926299
  -0.77738613  -0.76043507  -0.75424118  -0.73665344  -0.72145664
  -0.69845996  -0.68317838  -0.63712017  -0.62607978  -0.58893445
  -0.57786858  -0.57352223  -0.56772985  -0.54971232  -0.52080878
  -0.49831824  -0.47698244  -0.45489624  -0.45161927  -0.44024371
  -0.43341392  -0.41675564  -0.39758047  -0.39638326  -0.38970244
  -0.38270271  -0.37870065  -0.37426397  -0.36749363  -0.36518723
  -0.35267468  -0.33986432  -0.32437614  -0.31617231  -0.30088802
  -0.29635724  -0.28038574  -0.26952866  -0.25826474  -0.25511748
  -0.24529401  -0.23406364  -0.22320806  -0.21844893  -0.20552789
  -0.19564737  -0.16235617  -0.09399748  -0.03016642   0.03269952
   0.07822214   0.09144409   0.09613354   0.13593979   0.15586454
   0.17049214   0.19329325   0.21480813   0.22398924   0.23825073
   0.25336542   0.2813596    0.28641585   0.29620507   0.30262797
   0.31247914   0.32285125   0.34488466   0.35119965   0.36327586
   0.36943196   0.38826342   0.40086484   0.44518489   0.46470076
   0.48672785   0.49435136   0.51823535   0.53965967   0.5474536
   0.57049998   0.58275915   0.60282687   0.61754257   0.62852869
   0.65341741   0.6647104    0.68115226   0.69554567   0.70133491
   0.75186187   0.78769226   0.82919575   0.8470772    0.86464819
   0.8869298    0.91348148   0.95255668   0.95967451]
nelec by numeric integration = 146.00000101973453
    CPU time for vxc     38.04 sec, wall time     15.72 sec
E1 = -4091.896405030634  Ecoul = 1890.8081239260266  Exc = -124.52346899585129
cycle= 10 E= -835.666951190231  delta_E= -4.61e-07  |g|= 0.000408  |ddm|= 0.00237
    CPU time for cycle= 10     38.66 sec, wall time     15.81 sec
  HOMO = -0.0939640505813304  LUMO = -0.0301433397609315
  mo_energy =
[-10.0435723  -10.03353499 -10.02921103 -10.02284735 -10.02175081
 -10.02052631 -10.01929596 -10.01814251 -10.01725258 -10.0171989
 -10.01654242 -10.01639908 -10.0163596  -10.01534943 -10.01472182
 -10.01339884 -10.01324556 -10.01288712 -10.01253479 -10.01117555
  -9.99884184  -9.9977356   -0.86802069  -0.86420664  -0.80927064
  -0.77736351  -0.76042513  -0.75421436  -0.73662553  -0.72145718
  -0.69845261  -0.68316459  -0.63709788  -0.62605788  -0.58893131
  -0.57786025  -0.57349627  -0.56771291  -0.54970173  -0.52080078
  -0.49829463  -0.47697713  -0.45488161  -0.45161056  -0.44023153
  -0.43339226  -0.41675947  -0.39756728  -0.39638147  -0.38969229
  -0.38269083  -0.37868506  -0.37424453  -0.36747206  -0.36517061
  -0.35267353  -0.33985983  -0.32436369  -0.31617302  -0.30087793
  -0.2963547   -0.28037046  -0.26951511  -0.25824754  -0.25510828
  -0.24528303  -0.23404327  -0.22319562  -0.21842431  -0.2055173
  -0.19564539  -0.16234425  -0.09396405  -0.03014334   0.03271061
   0.07823668   0.09145973   0.09614762   0.13594334   0.15589121
   0.17050912   0.19330427   0.21479752   0.22399551   0.23824852
   0.25338249   0.2813343    0.28643226   0.29622247   0.30264694
   0.31249881   0.32287861   0.34489115   0.35120965   0.36329249
   0.36943713   0.38829391   0.40086018   0.44518059   0.46470359
   0.48673608   0.49436423   0.51825552   0.5396611    0.54747868
   0.57050975   0.58277331   0.60284224   0.61754633   0.62853801
   0.65344705   0.66473564   0.68114942   0.69557803   0.70136823
   0.75188742   0.78772486   0.82922326   0.84710285   0.86467565
   0.88691508   0.91346407   0.95257135   0.95969832]
nelec by numeric integration = 146.0000010197329
    CPU time for vxc     38.15 sec, wall time     15.80 sec
E1 = -4091.8952912370933  Ecoul = 1890.8069750548316  Exc = -124.52343397438537
cycle= 11 E= -835.666951246419  delta_E= -5.62e-08  |g|= 0.000113  |ddm|= 0.000665
    CPU time for cycle= 11     38.60 sec, wall time     15.87 sec
  HOMO = -0.0939609516212789  LUMO = -0.0301400158512934
  mo_energy =
[-10.04357472 -10.03354255 -10.02920505 -10.02283978 -10.02174905
 -10.0205349  -10.01929158 -10.01811725 -10.01724264 -10.01721524
 -10.01653729 -10.01641489 -10.01635761 -10.01533994 -10.01472264
 -10.01337464 -10.01323561 -10.01287625 -10.01252665 -10.01117175
  -9.99882314  -9.99774923  -0.86801061  -0.86420739  -0.8092728
  -0.77735923  -0.76042557  -0.75420739  -0.7366194   -0.72145727
  -0.69845088  -0.68316389  -0.63709322  -0.62605551  -0.58893408
  -0.57786119  -0.57348929  -0.56770641  -0.54969991  -0.52079786
  -0.49829159  -0.47697753  -0.4548793   -0.45160908  -0.44022943
  -0.43338682  -0.41676128  -0.39756392  -0.39637833  -0.38968882
  -0.38268701  -0.37868397  -0.37424268  -0.36746677  -0.36516623
  -0.35267444  -0.33986176  -0.32436415  -0.31617462  -0.30087445
  -0.29635387  -0.28036697  -0.26951149  -0.25824481  -0.25510291
  -0.24527944  -0.23403729  -0.22319532  -0.21841783  -0.20551571
  -0.19564355  -0.16234423  -0.09396095  -0.03014002   0.03270982
   0.07824127   0.09146287   0.09615025   0.13594663   0.15589572
   0.17050863   0.19330707   0.21479646   0.22399674   0.23824766
   0.25338751   0.28133754   0.28643804   0.29622809   0.302646
   0.31250125   0.32288365   0.34489442   0.3512114    0.3633001
   0.36943451   0.38829427   0.40085222   0.44518094   0.46470929
   0.48673611   0.49436763   0.51825987   0.53966289   0.5474844
   0.5705124    0.58277973   0.60284518   0.61754835   0.62854133
   0.65345096   0.66474028   0.68114836   0.69558423   0.70137272
   0.7518887    0.78773112   0.82922189   0.84710492   0.86468287
   0.88691317   0.91346171   0.95258314   0.95969555]
nelec by numeric integration = 146.0000010197243
    CPU time for vxc     37.47 sec, wall time     15.58 sec
E1 = -4091.8949551090927  Ecoul = 1890.806634727818  Exc = -124.52342977866445
cycle= 12 E= -835.666951249711  delta_E= -3.29e-09  |g|= 5.98e-05  |ddm|= 0.000158
    CPU time for cycle= 12     37.92 sec, wall time     15.65 sec
  HOMO = -0.0939601152107926  LUMO = -0.0301396447369555
  mo_energy =
[-10.04357417 -10.03354105 -10.02920995 -10.02284034 -10.02174953
 -10.02053893 -10.01929183 -10.01812278 -10.01724157 -10.01721179
 -10.01653478 -10.01641225 -10.01635802 -10.01534116 -10.01472626
 -10.01337405 -10.01323767 -10.01287654 -10.01252737 -10.01117454
  -9.99882228  -9.99773729  -0.86801189  -0.86420751  -0.80927256
  -0.7773588   -0.76042489  -0.75420815  -0.73661903  -0.72145774
  -0.69845083  -0.68316478  -0.63709161  -0.62605669  -0.58893418
  -0.57786091  -0.57349021  -0.56770676  -0.54970031  -0.52079757
  -0.49829133  -0.4769779   -0.45487862  -0.45160941  -0.44022925
  -0.43338701  -0.41676139  -0.39756362  -0.39637796  -0.38968896
  -0.38268748  -0.37868437  -0.3742431   -0.36746816  -0.36516686
  -0.35267461  -0.33986143  -0.32436464  -0.31617443  -0.30087443
  -0.29635413  -0.28036692  -0.26951112  -0.25824387  -0.25510304
  -0.24527963  -0.23403734  -0.22319441  -0.21841795  -0.20551644
  -0.19564368  -0.16234475  -0.09396012  -0.03013964   0.03270918
   0.07824102   0.09146266   0.09614923   0.13594606   0.15589659
   0.1705095    0.19330805   0.21479685   0.22399732   0.2382481
   0.25338766   0.2813376    0.28643755   0.29622744   0.30264692
   0.31250088   0.32288211   0.34489356   0.35121102   0.36329952
   0.36943372   0.38829277   0.40085235   0.44518031   0.46470962
   0.48673611   0.49436764   0.51825941   0.539662     0.5474827
   0.5705126    0.58278063   0.60284516   0.61754774   0.628541
   0.6534504    0.66473912   0.68114798   0.69558293   0.70137543
   0.75188762   0.78773052   0.8292236    0.84710571   0.86468256
   0.88691283   0.91346203   0.95258293   0.95969692]
nelec by numeric integration = 146.00000101973103
    CPU time for vxc     38.37 sec, wall time     15.81 sec
E1 = -4091.895025045953  Ecoul = 1890.8067048895123  Exc = -124.52343000476793
cycle= 13 E= -835.666951250981  delta_E= -1.27e-09  |g|= 1.67e-05  |ddm|= 8.21e-05
    CPU time for cycle= 13     38.98 sec, wall time     15.91 sec
  HOMO = -0.0939604521101761  LUMO = -0.0301399700602505
  mo_energy =
[-10.04357489 -10.03354087 -10.02920883 -10.02284053 -10.02174919
 -10.02053761 -10.01929341 -10.01812156 -10.01724365 -10.01721235
 -10.01653673 -10.01641266 -10.01635984 -10.01534179 -10.0147249
 -10.0133758  -10.01323938 -10.0128777  -10.01252889 -10.01117366
  -9.99882046  -9.99773944  -0.8680124   -0.86420766  -0.80927285
  -0.77735913  -0.76042513  -0.75420862  -0.73661973  -0.72145782
  -0.6984509   -0.68316487  -0.63709176  -0.62605707  -0.58893432
  -0.57786105  -0.57349039  -0.56770709  -0.54970051  -0.52079771
  -0.49829175  -0.47697796  -0.45487907  -0.45160964  -0.44022975
  -0.43338746  -0.41676134  -0.39756378  -0.39637805  -0.38968918
  -0.38268756  -0.37868458  -0.37424333  -0.36746842  -0.36516716
  -0.35267475  -0.33986167  -0.3243648   -0.31617475  -0.30087457
  -0.29635422  -0.28036722  -0.26951154  -0.25824418  -0.25510345
  -0.24528     -0.23403749  -0.22319463  -0.21841853  -0.20551657
  -0.19564388  -0.16234481  -0.09396045  -0.03013997   0.0327091
   0.07824063   0.09146231   0.09614921   0.13594567   0.15589621
   0.17050933   0.19330762   0.21479652   0.22399714   0.2382477
   0.25338744   0.28133701   0.28643731   0.29622718   0.30264677
   0.3125007    0.32288182   0.34489334   0.35121082   0.36329956
   0.3694337    0.38829256   0.40085244   0.44518036   0.4647099
   0.48673584   0.4943673    0.51825867   0.5396618    0.54748264
   0.57051243   0.58278056   0.60284471   0.61754757   0.62854052
   0.65344999   0.66473905   0.68114787   0.69558253   0.70137475
   0.75188753   0.7877302    0.82922327   0.84710522   0.86468223
   0.88691283   0.91346172   0.95258195   0.95969679]
nelec by numeric integration = 146.00000101973004
    CPU time for vxc     38.58 sec, wall time     15.99 sec
E1 = -4091.8950430658133  Ecoul = 1890.8067240700148  Exc = -124.52343116548771
cycle= 14 E= -835.666951251058  delta_E= -7.73e-11  |g|= 7.33e-06  |ddm|= 1.94e-05
    CPU time for cycle= 14     39.22 sec, wall time     16.09 sec
  HOMO = -0.0939601916298485  LUMO = -0.0301396111513511
  mo_energy =
[-10.04357533 -10.0335404  -10.02921039 -10.02284029 -10.02174823
 -10.02053915 -10.01929505 -10.01812186 -10.01724349 -10.01721251
 -10.01653717 -10.01641251 -10.01636228 -10.01534128 -10.01472702
 -10.01337577 -10.01324129 -10.012878   -10.012528   -10.01117413
  -9.99881701  -9.9977346   -0.86801289  -0.86420767  -0.80927279
  -0.77735889  -0.76042481  -0.75420906  -0.73661948  -0.72145807
  -0.69845069  -0.68316542  -0.63709035  -0.62605806  -0.58893442
  -0.57786097  -0.57349064  -0.56770697  -0.54970062  -0.52079721
  -0.49829163  -0.4769781   -0.45487883  -0.45160987  -0.44022982
  -0.43338753  -0.41676104  -0.39756332  -0.39637759  -0.38968926
  -0.3826879   -0.378685    -0.37424368  -0.36746924  -0.36516751
  -0.3526748   -0.33986177  -0.32436561  -0.31617503  -0.30087449
  -0.29635435  -0.28036732  -0.26951145  -0.25824366  -0.25510354
  -0.24528018  -0.2340376   -0.22319427  -0.2184185   -0.20551709
  -0.1956437   -0.16234506  -0.09396019  -0.03013961   0.03270891
   0.07824064   0.09146224   0.09614868   0.13594531   0.15589663
   0.17050953   0.19330787   0.21479656   0.22399704   0.2382477
   0.25338685   0.2813372    0.28643687   0.29622698   0.30264718
   0.31250044   0.32288034   0.34489263   0.35121042   0.36329956
   0.36943352   0.38829134   0.40085262   0.44518025   0.46471118
   0.48673594   0.49436751   0.51825817   0.5396616    0.54748196
   0.57051272   0.58278162   0.60284456   0.61754752   0.62854031
   0.65344945   0.66473853   0.68114774   0.69558189   0.70137634
   0.75188673   0.78772999   0.82922407   0.84710565   0.8646824
   0.8869129    0.91346193   0.95258168   0.95969755]
nelec by numeric integration = 146.00000101973188
    CPU time for vxc     37.90 sec, wall time     15.65 sec
E1 = -4091.8950468217745  Ecoul = 1890.8067278231692  Exc = -124.52343116221786
Extra cycle  E= -835.666951250595  delta_E= 4.63e-10  |g|= 3.35e-05  |ddm|= 7.96e-05
    CPU time for scf_cycle    624.66 sec, wall time    255.30 sec
    CPU time for SCF    624.66 sec, wall time    255.30 sec
converged SCF energy = -835.666951250595
nelec by numeric integration = 146.00000101973188
    CPU time for vxc     37.68 sec, wall time     15.62 sec
 ** Mulliken pop  **
pop of  0 C 1s            1.99136
pop of  0 C 2s            1.21000
pop of  0 C 2px           0.97442
pop of  0 C 2py           0.89277
pop of  0 C 2pz           0.92539
pop of  1 C 1s            1.99058
pop of  1 C 2s            1.12628
pop of  1 C 2px           0.98481
pop of  1 C 2py           0.95058
pop of  1 C 2pz           0.94634
pop of  2 C 1s            1.99184
pop of  2 C 2s            1.19123
pop of  2 C 2px           0.96431
pop of  2 C 2py           0.95269
pop of  2 C 2pz           0.94253
pop of  3 C 1s            1.99110
pop of  3 C 2s            1.17946
pop of  3 C 2px           0.97813
pop of  3 C 2py           0.92564
pop of  3 C 2pz           0.96539
pop of  4 C 1s            1.99092
pop of  4 C 2s            1.10182
pop of  4 C 2px           1.03897
pop of  4 C 2py           0.97159
pop of  4 C 2pz           1.06300
pop of  5 C 1s            1.99123
pop of  5 C 2s            1.15438
pop of  5 C 2px           0.98086
pop of  5 C 2py           0.95423
pop of  5 C 2pz           0.96019
pop of  6 C 1s            1.99100
pop of  6 C 2s            1.18959
pop of  6 C 2px           0.96049
pop of  6 C 2py           0.95567
pop of  6 C 2pz           0.93784
pop of  7 C 1s            1.99092
pop of  7 C 2s            1.11466
pop of  7 C 2px           1.02019
pop of  7 C 2py           0.99755
pop of  7 C 2pz           0.97229
pop of  8 C 1s            1.99011
pop of  8 C 2s            1.05380
pop of  8 C 2px           1.02176
pop of  8 C 2py           0.98477
pop of  8 C 2pz           0.98470
pop of  9 C 1s            1.99099
pop of  9 C 2s            1.06700
pop of  9 C 2px           1.01521
pop of  9 C 2py           0.96431
pop of  9 C 2pz           0.97119
pop of  10 C 1s           1.99122
pop of  10 C 2s           1.16955
pop of  10 C 2px          1.00861
pop of  10 C 2py          0.92667
pop of  10 C 2pz          0.93082
pop of  11 C 1s           1.99153
pop of  11 C 2s           1.15679
pop of  11 C 2px          1.01376
pop of  11 C 2py          0.94068
pop of  11 C 2pz          1.03314
pop of  12 C 1s           1.99147
pop of  12 C 2s           1.19268
pop of  12 C 2px          0.98878
pop of  12 C 2py          0.94187
pop of  12 C 2pz          0.88331
pop of  13 C 1s           1.99112
pop of  13 C 2s           1.17046
pop of  13 C 2px          0.96662
pop of  13 C 2py          0.94451
pop of  13 C 2pz          0.94526
pop of  14 C 1s           1.99117
pop of  14 C 2s           1.19788
pop of  14 C 2px          1.00929
pop of  14 C 2py          0.90367
pop of  14 C 2pz          0.93844
pop of  15 C 1s           1.99133
pop of  15 C 2s           1.20212
pop of  15 C 2px          0.98248
pop of  15 C 2py          0.92951
pop of  15 C 2pz          0.97008
pop of  16 C 1s           1.99025
pop of  16 C 2s           1.08212
pop of  16 C 2px          1.02519
pop of  16 C 2py          0.96351
pop of  16 C 2pz          0.97567
pop of  17 C 1s           1.99095
pop of  17 C 2s           1.12132
pop of  17 C 2px          0.97374
pop of  17 C 2py          0.94145
pop of  17 C 2pz          0.95110
pop of  18 C 1s           1.99107
pop of  18 C 2s           1.17421
pop of  18 C 2px          0.94330
pop of  18 C 2py          0.94864
pop of  18 C 2pz          0.96393
pop of  19 C 1s           1.99040
pop of  19 C 2s           1.06711
pop of  19 C 2px          1.03715
pop of  19 C 2py          0.99816
pop of  19 C 2pz          1.04269
pop of  20 C 1s           1.99053
pop of  20 C 2s           1.10340
pop of  20 C 2px          1.02938
pop of  20 C 2py          1.02569
pop of  20 C 2pz          0.97967
pop of  21 C 1s           1.99087
pop of  21 C 2s           1.07730
pop of  21 C 2px          0.98108
pop of  21 C 2py          1.00446
pop of  21 C 2pz          0.98765
pop of  22 H 1s           0.95603
pop of  23 H 1s           0.91444
pop of  24 H 1s           0.87930
pop of  25 H 1s           0.93417
pop of  26 H 1s           0.92541
pop of  27 H 1s           0.92903
pop of  28 H 1s           0.96019
pop of  29 H 1s           0.88736
pop of  30 H 1s           0.94083
pop of  31 H 1s           0.91903
pop of  32 H 1s           0.94219
pop of  33 H 1s           0.88665
pop of  34 H 1s           0.88390
pop of  35 H 1s           0.94860
 ** Mulliken atomic charges  **
charge of    0C =      0.00607
charge of    1C =      0.00141
charge of    2C =     -0.04260
charge of    3C =     -0.03973
charge of    4C =     -0.16630
charge of    5C =     -0.04089
charge of    6C =     -0.03459
charge of    7C =     -0.09560
charge of    8C =     -0.03513
charge of    9C =     -0.00870
charge of   10C =     -0.02688
charge of   11C =     -0.13589
charge of   12C =      0.00189
charge of   13C =     -0.01796
charge of   14C =     -0.04044
charge of   15C =     -0.07552
charge of   16C =     -0.03673
charge of   17C =      0.02145
charge of   18C =     -0.02117
charge of   19C =     -0.13552
charge of   20C =     -0.12868
charge of   21C =     -0.04136
charge of   22H =      0.04397
charge of   23H =      0.08556
charge of   24H =      0.12070
charge of   25H =      0.06583
charge of   26H =      0.07459
charge of   27H =      0.07097
charge of   28H =      0.03981
charge of   29H =      0.11264
charge of   30H =      0.05917
charge of   31H =      0.08097
charge of   32H =      0.05781
charge of   33H =      0.11335
charge of   34H =      0.11610
charge of   35H =      0.05140
Dipole moment(X, Y, Z, Debye): -0.23967,  0.18412,  0.40065
nelec by numeric integration = 146.00000101973188
    CPU time for vxc     37.80 sec, wall time     15.62 sec
E1 = -4091.8950468217745  Ecoul = 1890.8067278231688  Exc = -124.52343116221786
nelec by numeric integration = 146.00000101973188
    CPU time for vxc     37.84 sec, wall time     15.69 sec
E1 = -4091.8950468217745  Ecoul = 1890.8067278231692  Exc = -124.52343116221786
