System: uname_result(system='Linux', node='cosmopc18', release='5.15.0-97-generic', version='#107-Ubuntu SMP Wed Feb 7 13:26:48 UTC 2024', machine='x86_64')  Threads 4
Python 3.11.8 (main, Feb 26 2024, 21:39:34) [GCC 11.2.0]
numpy 1.26.4  scipy 1.11.4
Date: Tue Apr  9 11:00:24 2024
PySCF version 2.3.0
PySCF path  /home/saade/miniconda3/envs/tutorial/lib/python3.11/site-packages/pyscf

[ENV] PYSCFAD_BACKEND torch
[CONFIG] conf_file None
[INPUT] verbose = 5
[INPUT] max_memory = 4000 
[INPUT] num. atoms = 36
[INPUT] num. electrons = 146
[INPUT] charge = 0
[INPUT] spin (= nelec alpha-beta = 2S) = 0
[INPUT] symmetry False subgroup None
[INPUT] Mole.unit = angstrom
[INPUT] Symbol           X                Y                Z      unit          X                Y                Z       unit  Magmom
[INPUT]  1 C      0.085388000000   3.644601000000   0.628391000000 AA    0.161359934324   6.887297723316   1.187486889142 Bohr   0.0
[INPUT]  2 C     -0.074865000000   3.579420000000  -0.710022000000 AA   -0.141474346316   6.764123484791  -1.341747122416 Bohr   0.0
[INPUT]  3 C      0.130479000000   4.824716000000   1.481716000000 AA    0.246569575007   9.117391868807   2.800037434386 Bohr   0.0
[INPUT]  4 C     -0.022945000000   2.538968000000   1.301886000000 AA   -0.043359765928   4.797954159035   2.460207985406 Bohr   0.0
[INPUT]  5 C      0.043410000000   4.900677000000  -1.441500000000 AA    0.082033011067   9.260937354955  -2.724040208561 Bohr   0.0
[INPUT]  6 C      0.003823000000   2.628952000000  -1.486640000000 AA    0.007224422974   4.967999274628  -2.809342445823 Bohr   0.0
[INPUT]  7 C      0.106678000000   6.006993000000  -0.635705000000 AA    0.201592203516  11.351571602179  -1.201308346017 Bohr   0.0
[INPUT]  8 C     -0.097618000000   6.218296000000   0.862498000000 AA   -0.184471284828  11.750876401478   1.629885002985 Bohr   0.0
[INPUT]  9 C     -0.108470000000   1.283695000000   0.633197000000 AA   -0.204978592732   2.425831977474   1.196568912896 Bohr   0.0
[INPUT] 10 C     -0.241487000000   1.427213000000  -0.683058000000 AA   -0.456344292643   2.697041691419  -1.290792547193 Bohr   0.0
[INPUT] 11 C      0.161242000000   0.131174000000   1.433771000000 AA    0.304703219777   0.247882934664   2.709434515344 Bohr   0.0
[INPUT] 12 C     -0.084851000000   0.138345000000  -1.566489000000 AA   -0.160345151395   0.261434160703  -2.960235187144 Bohr   0.0
[INPUT] 13 C      0.014042000000  -1.149271000000   0.831434000000 AA    0.026535534241  -2.171807432905   1.571182550652 Bohr   0.0
[INPUT] 14 C     -0.111867000000  -1.215708000000  -0.751943000000 AA   -0.211397992377  -2.297355167443  -1.420966331284 Bohr   0.0
[INPUT] 15 C     -0.003644000000  -2.425332000000   1.545871000000 AA   -0.006886161998  -4.583213241144   2.921272813908 Bohr   0.0
[INPUT] 16 C      0.028861000000  -2.465248000000  -1.505486000000 AA    0.054539385681  -4.658643549132  -2.844956224367 Bohr   0.0
[INPUT] 17 C      0.067273000000  -3.721138000000   0.701416000000 AA    0.127127545578  -7.031931691712   1.325484139388 Bohr   0.0
[INPUT] 18 C      0.113951000000  -3.457061000000  -0.494996000000 AA    0.215336181620  -6.532898485915  -0.935406872755 Bohr   0.0
[INPUT] 19 C      0.055726000000  -4.744897000000   1.482679000000 AA    0.105306878018  -8.966555819270   2.801857240644 Bohr   0.0
[INPUT] 20 C     -0.013120000000  -4.855642000000  -1.458031000000 AA   -0.024793206754  -9.175833538935  -2.755279271126 Bohr   0.0
[INPUT] 21 C      0.113988000000  -6.076664000000   0.753401000000 AA    0.215406101487 -11.483230711004   1.423721551973 Bohr   0.0
[INPUT] 22 C      0.016029000000  -6.159944000000  -0.591171000000 AA    0.030290420051 -11.640607102658  -1.117151282785 Bohr   0.0
[INPUT] 23 H     -0.055471000000   4.921853000000   2.467494000000 AA   -0.104824997856   9.300954195369   4.662887874008 Bohr   0.0
[INPUT] 24 H      0.021869000000   2.543502000000   2.488692000000 AA    0.041326420618   4.806522177283   4.702946288396 Bohr   0.0
[INPUT] 25 H      0.018866000000   4.858186000000  -2.386897000000 AA    0.035651573066   9.180641002196  -4.510581617546 Bohr   0.0
[INPUT] 26 H     -0.042565000000   2.511952000000  -2.535061000000 AA   -0.080436192492   4.746901318053  -4.790570999066 Bohr   0.0
[INPUT] 27 H     -0.153953000000   7.047604000000  -1.217456000000 AA   -0.290929006055  13.318041394389  -2.300658408708 Bohr   0.0
[INPUT] 28 H     -0.009579000000   7.172739000000   1.236838000000 AA   -0.018101686547  13.554512272987   2.337285080455 Bohr   0.0
[INPUT] 29 H      0.161410000000   0.045809000000   2.593688000000 AA    0.305020693766   0.086566464040   4.901359972571 Bohr   0.0
[INPUT] 30 H      0.056798000000  -0.071968000000  -2.631802000000 AA    0.107332664423  -0.135999809733  -4.973384994083 Bohr   0.0
[INPUT] 31 H      0.080516000000  -2.599752000000   2.474932000000 AA    0.152153188645  -4.912819271790   4.676943656922 Bohr   0.0
[INPUT] 32 H      0.039102000000  -2.546510000000  -2.476586000000 AA    0.073892070923  -4.812206473466  -4.680069263932 Bohr   0.0
[INPUT] 33 H      0.001744000000  -5.086137000000   2.593043000000 AA    0.003295682361  -9.611405962017   4.900141099221 Bohr   0.0
[INPUT] 34 H      0.131364000000  -4.926070000000  -2.409086000000 AA    0.248241982627  -9.308923170436  -4.552512750524 Bohr   0.0
[INPUT] 35 H      0.046445000000  -6.977781000000   1.223975000000 AA    0.087768329855 -13.186095047194   2.312977533315 Bohr   0.0
[INPUT] 36 H      0.083152000000  -7.022487000000  -1.256216000000 AA    0.157134506710 -13.270577143319  -2.373904193297 Bohr   0.0
[INPUT] ---------------- BASIS SET ---------------- 
[INPUT] l, kappa, [nprim/nctr], expnt,             c_1 c_2 ...
[INPUT] H
[INPUT] 0    0    [3    /1   ]  3.42525091        0.15432897
                                0.62391373        0.53532814
                                0.1688554         0.44463454
[INPUT] C
[INPUT] 0    0    [3    /1   ]  71.616837         0.15432897
                                13.045096         0.53532814
                                3.5305122         0.44463454
[INPUT] 0    0    [3    /1   ]  2.9412494         -0.09996723
                                0.6834831         0.39951283
                                0.2222899         0.70011547
[INPUT] 1    0    [3    /1   ]  2.9412494         0.15591627
                                0.6834831         0.60768372
                                0.2222899         0.39195739

nuclear repulsion = 1488.1229886522
number of shells = 80
number of NR pGTOs = 372
number of NR cGTOs = 124
basis = sto3g
ecp = {}
CPU time:     11498.54
atom C rad-grids = 99, ang-grids = [ 50  50  50  50  50  50  50  50  50  50  50  50  50  50  50  50  50  50
  50  50  50  50  50  50  50  50  50  50  50  50  50  86  86  86  86  86
  86  86  86  86  86  86  86 434 434 434 434 434 434 434 434 434 590 590
 590 590 590 590 590 590 590 590 590 590 590 590 590 590 590 590 590 590
 590 590 590 590 590 590 590 434 434 434 434 434 434 434 434 434 434 434
 434 434 434 434 434 434 434 434 434]
atom H rad-grids = 99, ang-grids = [ 50  50  50  50  50  50  50  50  50  50  50  50  50  50  50  50  50  50
  50  50  50  50  50  50  50  50  50  50  86  86  86  86  86  86  86 434
 434 434 434 434 434 434 434 590 590 590 590 590 590 590 590 590 590 590
 590 590 590 590 590 590 590 590 590 590 590 590 590 590 590 434 434 434
 434 434 434 434 434 434 434 434 434 434 434 434 434 434 434 434 434 434
 434 434 434 434 434 434 434 434 434]
tot_boxes 5270, boxes in each direction [ 8 29 15]
Padding 0 grids
tot grids = 1157832


******** <class 'pyscf.dft.rks.RKS'> ********
method = RKS
initial guess = minao
damping factor = 0
level_shift factor = 0
DIIS = <class 'pyscf.scf.diis.CDIIS'>
diis_start_cycle = 1
diis_space = 8
SCF conv_tol = 1e-10
SCF conv_tol_grad = None
SCF max_cycles = 50
direct_scf = True
direct_scf_tol = 1e-13
chkfile to save SCF result = /home/saade/mlelec/tutorials/tmpucpedomj
max_memory 4000 MB (current use 636 MB)
XC library pyscf.dft.libxc version 6.1.0
    S. Lehtola, C. Steigemann, M. J.T. Oliveira, and M. A.L. Marques.,  SoftwareX 7, 1–5 (2018)
XC functionals = b3lypg
    P. J. Stephens, F. J. Devlin, C. F. Chabalowski, and M. J. Frisch.,  J. Phys. Chem. 98, 11623 (1994)
radial grids: 
    Treutler-Ahlrichs [JCP 102, 346 (1995); DOI:10.1063/1.469408] (M4) radial grids
    
becke partition: Becke, JCP 88, 2547 (1988); DOI:10.1063/1.454033
pruning grids: <function nwchem_prune at 0x7f9db5616ca0>
grids dens level: 3
symmetrized grids: False
atomic radii adjust function: <function treutler_atomic_radii_adjust at 0x7f9db5617380>
User specified grid scheme (99, 590)
small_rho_cutoff = 1e-07
Set gradient conv threshold to 1e-05
Initial guess from minao.
nelec by numeric integration = 145.2655782426629
    CPU time for vxc     37.41 sec, wall time     15.69 sec
E1 = -4076.9319160576547  Ecoul = 1873.8524465101991  Exc = -125.82217054289654
init E= -840.77865143815
cond(S) = 20.240189490346594
    CPU time for initialize scf     47.20 sec, wall time     18.05 sec
  HOMO = -0.192965824614415  LUMO = -0.150063350032786
  mo_energy =
[-1.01389373e+01 -1.01321406e+01 -1.01250597e+01 -1.01222557e+01
 -1.01163433e+01 -1.01146986e+01 -1.01067797e+01 -1.01038173e+01
 -1.01022497e+01 -1.00999059e+01 -1.00964291e+01 -1.00941562e+01
 -1.00938042e+01 -1.00889375e+01 -1.00883608e+01 -1.00830003e+01
 -1.00778706e+01 -1.00772353e+01 -1.00755304e+01 -1.00727310e+01
 -1.00709253e+01 -1.00677067e+01 -1.11292207e+00 -1.06845420e+00
 -9.99489477e-01 -9.55385575e-01 -9.50941821e-01 -9.17365815e-01
 -9.07358830e-01 -8.62840014e-01 -8.49963567e-01 -8.17828379e-01
 -7.77657222e-01 -7.60035633e-01 -7.32711403e-01 -7.13873199e-01
 -7.00032579e-01 -6.82527242e-01 -6.63429781e-01 -6.28215617e-01
 -5.95760989e-01 -5.75354115e-01 -5.59107103e-01 -5.53535253e-01
 -5.47571812e-01 -5.29411618e-01 -5.18506500e-01 -5.07509468e-01
 -4.94788725e-01 -4.94021371e-01 -4.80233852e-01 -4.76716096e-01
 -4.56528603e-01 -4.52148080e-01 -4.46368146e-01 -4.29356628e-01
 -4.22583164e-01 -4.06090899e-01 -3.97817500e-01 -3.85699677e-01
 -3.80668287e-01 -3.70909621e-01 -3.55927512e-01 -3.46774093e-01
 -3.42641172e-01 -3.22091688e-01 -3.09621482e-01 -3.06015332e-01
 -2.90747750e-01 -2.72862025e-01 -2.58366813e-01 -2.28599890e-01
 -1.92965825e-01 -1.50063350e-01 -1.06421004e-01 -8.36132966e-02
 -4.61500190e-02 -3.76538985e-02 -1.90201721e-02 -3.54203073e-03
  2.56437953e-02  7.60787451e-02  8.41557322e-02  1.46100050e-01
  1.48602516e-01  1.62243861e-01  1.69017711e-01  1.77453476e-01
  1.83899186e-01  1.99476318e-01  2.20675515e-01  2.23202167e-01
  2.27357339e-01  2.43343009e-01  2.60021139e-01  2.67209103e-01
  2.82119692e-01  2.89459006e-01  3.09829835e-01  3.17222038e-01
  3.33038790e-01  3.47632024e-01  3.54592152e-01  3.76456032e-01
  3.93999015e-01  4.16785417e-01  4.35713035e-01  4.45787678e-01
  4.57781652e-01  4.71603036e-01  5.10707985e-01  5.14717792e-01
  5.25865164e-01  5.40966147e-01  5.61124058e-01  5.70445298e-01
  5.78775603e-01  5.85791512e-01  6.06879220e-01  6.60108256e-01
  6.89819429e-01  7.09526479e-01  8.17529395e-01  8.59937863e-01]
nelec by numeric integration = 145.99999753274318
    CPU time for vxc     38.13 sec, wall time     15.77 sec
E1 = -4092.824761296773  Ecoul = 1893.4709687670036  Exc = -124.53567764589297
cycle= 1 E= -835.766481523461  delta_E= 5.01  |g|= 0.281  |ddm|= 9.21
    CPU time for cycle= 1     38.51 sec, wall time     15.83 sec
  HOMO = -0.0734441557332976  LUMO = 0.00506540256482956
  mo_energy =
[-1.00218845e+01 -1.00141689e+01 -1.00091189e+01 -1.00025719e+01
 -1.00004045e+01 -9.99661010e+00 -9.99525543e+00 -9.99151462e+00
 -9.98703972e+00 -9.98602393e+00 -9.98560604e+00 -9.98232019e+00
 -9.97576819e+00 -9.97313934e+00 -9.97181956e+00 -9.96974524e+00
 -9.96725942e+00 -9.96646583e+00 -9.95776571e+00 -9.93048976e+00
 -9.91902212e+00 -9.91246464e+00 -8.35604817e-01 -8.10357990e-01
 -7.60491782e-01 -7.41772630e-01 -7.31828949e-01 -7.10419735e-01
 -7.07220515e-01 -6.71268547e-01 -6.65732479e-01 -6.44912617e-01
 -6.18788535e-01 -5.95198594e-01 -5.91181406e-01 -5.69593236e-01
 -5.54938169e-01 -5.33808073e-01 -5.30580334e-01 -5.06793368e-01
 -4.81360180e-01 -4.64010077e-01 -4.51312920e-01 -4.39082506e-01
 -4.30169563e-01 -4.18603650e-01 -4.07581273e-01 -3.97741114e-01
 -3.93322075e-01 -3.79289919e-01 -3.66091710e-01 -3.48228649e-01
 -3.44984493e-01 -3.39298185e-01 -3.32190150e-01 -3.24796430e-01
 -3.10656097e-01 -3.08081269e-01 -2.86854412e-01 -2.74547968e-01
 -2.68609905e-01 -2.66204566e-01 -2.59299987e-01 -2.36569156e-01
 -2.24438340e-01 -2.05211770e-01 -2.02303722e-01 -1.95979463e-01
 -1.78161444e-01 -1.60978427e-01 -1.48094839e-01 -1.17033301e-01
 -7.34441557e-02  5.06540256e-03  3.89135700e-02  6.18592203e-02
  1.13661893e-01  1.16961222e-01  1.46696707e-01  1.52313872e-01
  1.83115977e-01  2.38157933e-01  2.45877641e-01  2.96590124e-01
  3.14680621e-01  3.23938365e-01  3.29675891e-01  3.31204202e-01
  3.40274622e-01  3.44655400e-01  3.65565472e-01  3.67545739e-01
  3.73544630e-01  3.85218077e-01  4.01997163e-01  4.05783409e-01
  4.28275856e-01  4.47593360e-01  4.55817755e-01  4.57315713e-01
  4.94087359e-01  4.95543174e-01  5.16216203e-01  5.39388216e-01
  5.59455719e-01  5.70966428e-01  5.77961131e-01  5.84193963e-01
  5.92449922e-01  6.27882033e-01  6.47310977e-01  6.60622320e-01
  6.81913785e-01  6.98560297e-01  7.07121298e-01  7.18357254e-01
  7.40909289e-01  7.45908123e-01  7.77241142e-01  8.35105887e-01
  8.66795288e-01  8.70493614e-01  1.00544083e+00  1.03111086e+00]
nelec by numeric integration = 145.99999759654477
    CPU time for vxc     38.18 sec, wall time     15.73 sec
E1 = -4087.0923937765683  Ecoul = 1887.6403290760488  Exc = -124.39258720900445
cycle= 2 E= -835.721663257322  delta_E= 0.0448  |g|= 0.447  |ddm|= 1.17
    CPU time for cycle= 2     38.68 sec, wall time     15.81 sec
  HOMO = -0.0894424105214835  LUMO = -0.0102162364473042
  mo_energy =
[-10.03078714 -10.0226099  -10.02165643 -10.02129717 -10.02053271
 -10.0203481  -10.01942002 -10.01747012 -10.01226612 -10.01190194
 -10.00832781 -10.00307117  -9.99217191  -9.98837811  -9.97934148
  -9.97793698  -9.97748085  -9.97458265  -9.97353311  -9.97245093
  -9.94784349  -9.94124236  -0.86068971  -0.83222428  -0.78212046
  -0.75204336  -0.74701823  -0.72498711  -0.71569051  -0.6881085
  -0.67233812  -0.6506132   -0.62808827  -0.60804697  -0.59733993
  -0.58226477  -0.56593479  -0.54596326  -0.53888196  -0.50828519
  -0.4892926   -0.46986573  -0.45450323  -0.45017519  -0.44735708
  -0.42951968  -0.41726877  -0.4113384   -0.39826253  -0.39625217
  -0.38362965  -0.36654035  -0.36039999  -0.35331815  -0.34835592
  -0.33732861  -0.33085572  -0.30669795  -0.30220494  -0.29276064
  -0.28652676  -0.28142159  -0.26020156  -0.24337569  -0.24091231
  -0.22087923  -0.21158066  -0.20511275  -0.18757689  -0.17420117
  -0.15391984  -0.12482243  -0.08944241  -0.01021624   0.03358698
   0.06038053   0.09449549   0.10900338   0.12998531   0.14142831
   0.17249223   0.22223441   0.22619549   0.29066625   0.29644962
   0.30731874   0.31476478   0.32105456   0.32273252   0.33499935
   0.35699369   0.36293674   0.36475302   0.38390084   0.40215854
   0.41077524   0.42310489   0.4392358    0.45710313   0.46760783
   0.47398173   0.48699024   0.4957037    0.51780572   0.53861393
   0.55490456   0.57331056   0.58557608   0.58776991   0.60741652
   0.64388634   0.64841412   0.66799024   0.67344107   0.69391911
   0.71137363   0.72038444   0.73122656   0.74988763   0.80938473
   0.83906927   0.85489997   0.977735     1.00487406]
nelec by numeric integration = 145.99999753454026
    CPU time for vxc     38.13 sec, wall time     15.81 sec
E1 = -4089.646011059558  Ecoul = 1890.1907318179722  Exc = -124.42277441857851
cycle= 3 E= -835.755065007963  delta_E= -0.0334  |g|= 0.337  |ddm|= 1.28
    CPU time for cycle= 3     38.42 sec, wall time     15.86 sec
  HOMO = -0.0932161109981549  LUMO = -0.0199507232813994
  mo_energy =
[-10.03750182 -10.03307423 -10.0318827  -10.03082821 -10.0274571
 -10.02298834 -10.02213514 -10.01305924 -10.01097583 -10.0109594
 -10.00650208 -10.00466121 -10.00398554 -10.00350959 -10.0005531
  -9.99901262  -9.99720226  -9.99330688  -9.99102405  -9.98909515
  -9.9869629   -9.98277367  -0.87212385  -0.83530106  -0.78755165
  -0.76215891  -0.75456546  -0.73014899  -0.72394139  -0.69161227
  -0.68219294  -0.66014841  -0.62777612  -0.6166961   -0.60681916
  -0.58933869  -0.57166535  -0.552891    -0.54381694  -0.51594577
  -0.49532525  -0.47663425  -0.4589215   -0.45606202  -0.45144401
  -0.43491814  -0.42475917  -0.41408079  -0.40671888  -0.39913627
  -0.38865111  -0.37640092  -0.36136752  -0.36066423  -0.35367702
  -0.34155586  -0.33380478  -0.32036262  -0.30907955  -0.29489824
  -0.29186775  -0.28592765  -0.26958993  -0.25291637  -0.24867137
  -0.22835853  -0.22109558  -0.21556226  -0.19713197  -0.18442735
  -0.16485428  -0.13506986  -0.09321611  -0.01995072   0.02509977
   0.04832014   0.09018422   0.09901638   0.11989945   0.13234132
   0.16272533   0.21661702   0.22077276   0.28120352   0.29091857
   0.30446748   0.30775035   0.31397562   0.31897379   0.33330416
   0.35325568   0.35676402   0.35841311   0.3800273    0.39396064
   0.40515602   0.42272389   0.42838055   0.44526938   0.45308829
   0.46943703   0.4794689    0.49218967   0.51073886   0.53378759
   0.55353593   0.5674939    0.57687485   0.58047588   0.60228132
   0.63595318   0.64141879   0.66148799   0.67491482   0.69431516
   0.69862604   0.7075715    0.71874374   0.74575195   0.8013023
   0.82841169   0.84834349   0.95986263   1.00027633]
nelec by numeric integration = 145.99999755768107
    CPU time for vxc     37.97 sec, wall time     15.74 sec
E1 = -4089.7387549645896  Ecoul = 1890.2490947600484  Exc = -124.4306910582712
cycle= 4 E= -835.797362610611  delta_E= -0.0423  |g|= 0.0838  |ddm|= 0.673
    CPU time for cycle= 4     38.31 sec, wall time     15.80 sec
  HOMO = -0.0947119257627864  LUMO = -0.0208174823637786
  mo_energy =
[-10.03839919 -10.03174983 -10.0296374  -10.02621057 -10.02333602
 -10.01935493 -10.01796018 -10.01704911 -10.01332325 -10.01319502
 -10.01089228 -10.00999636 -10.00727374 -10.00529832 -10.00360609
  -9.99951191  -9.99934727  -9.99782966  -9.99554634  -9.99507593
  -9.98593472  -9.98307659  -0.86787681  -0.83743463  -0.78666101
  -0.75947782  -0.75627468  -0.73141838  -0.7247944   -0.693608
  -0.68193673  -0.66059292  -0.62806626  -0.6188582   -0.6065342
  -0.58678358  -0.57294192  -0.55252736  -0.54466329  -0.51587714
  -0.49479693  -0.47598488  -0.4585751   -0.45599143  -0.45177255
  -0.43383265  -0.42576273  -0.41336582  -0.40748833  -0.39903175
  -0.38924947  -0.37365111  -0.36378744  -0.36128992  -0.35542231
  -0.34372195  -0.33470094  -0.31946948  -0.30827001  -0.29700122
  -0.29246048  -0.28752398  -0.27253092  -0.25329078  -0.24886681
  -0.2294536   -0.22149961  -0.21677256  -0.19824089  -0.18530916
  -0.16554792  -0.13588053  -0.09471193  -0.02081748   0.02388005
   0.0476017    0.08899852   0.09756478   0.12129172   0.13106962
   0.16154235   0.21602229   0.22009221   0.2831283    0.28945452
   0.3052742    0.3081163    0.31440788   0.31729735   0.33053239
   0.35230072   0.35619478   0.35806529   0.37625486   0.39110112
   0.39980458   0.42325487   0.42663778   0.44440293   0.452459
   0.47031691   0.48059574   0.49192078   0.51303405   0.53464427
   0.55196148   0.56526661   0.57577963   0.57942864   0.60221805
   0.63571472   0.64284087   0.6603331    0.67364611   0.69235005
   0.6983253    0.71115629   0.71956611   0.7452267    0.80318532
   0.83250721   0.84614483   0.96698271   0.99828327]
nelec by numeric integration = 145.99999755878224
    CPU time for vxc     38.69 sec, wall time     15.87 sec
E1 = -4089.7208838582483  Ecoul = 1890.230271479102  Exc = -124.43206703973473
cycle= 5 E= -835.799690766679  delta_E= -0.00233  |g|= 0.0268  |ddm|= 0.149
    CPU time for cycle= 5     39.50 sec, wall time     15.99 sec
  HOMO = -0.0944735923687806  LUMO = -0.0197474637987287
  mo_energy =
[-10.03435909 -10.02993682 -10.02971997 -10.02621107 -10.02233458
 -10.02116847 -10.01827836 -10.0159374  -10.01234662 -10.0102226
 -10.01007305 -10.00990395 -10.00789172 -10.00557237  -9.99909954
  -9.99633399  -9.99500191  -9.9943934   -9.99381778  -9.99072956
  -9.98766564  -9.98648573  -0.86766002  -0.83555848  -0.78607843
  -0.75934845  -0.7550481   -0.73053535  -0.72358719  -0.69249655
  -0.68121317  -0.65986114  -0.62737158  -0.61777357  -0.60602356
  -0.5866246   -0.57225842  -0.55179131  -0.54406121  -0.51509578
  -0.49419262  -0.47539234  -0.45810207  -0.45544917  -0.45117516
  -0.43338585  -0.42483654  -0.41339919  -0.4066758   -0.39842934
  -0.38892057  -0.37328264  -0.36282834  -0.36024991  -0.35396478
  -0.34285282  -0.33406835  -0.31935889  -0.30789129  -0.29617478
  -0.29177043  -0.28706747  -0.27096635  -0.25229234  -0.2485132
  -0.22851198  -0.22034157  -0.21590161  -0.19719822  -0.18460859
  -0.16492119  -0.13538898  -0.09447359  -0.01974746   0.02440645
   0.04830599   0.09003957   0.09854781   0.1216714    0.13253648
   0.16266307   0.21664134   0.22094235   0.28359712   0.29095327
   0.30564442   0.30854959   0.31548324   0.31820863   0.33128395
   0.35307116   0.35699621   0.3586851    0.37708658   0.39221083
   0.40279281   0.42360972   0.42722471   0.4453014    0.45341776
   0.47054793   0.48078486   0.49235042   0.51376105   0.53536399
   0.55270384   0.56621882   0.5764437    0.57986982   0.60214096
   0.63633752   0.6435733    0.66145167   0.67413177   0.69300464
   0.6989836    0.71199582   0.72022342   0.74551818   0.80322728
   0.83280245   0.84800286   0.96743576   1.00067771]
nelec by numeric integration = 145.99999755743292
    CPU time for vxc     38.33 sec, wall time     15.83 sec
E1 = -4089.682220584984  Ecoul = 1890.1890658024115  Exc = -124.42969179199213
cycle= 6 E= -835.799857922363  delta_E= -0.000167  |g|= 0.0147  |ddm|= 0.0493
    CPU time for cycle= 6     39.19 sec, wall time     15.96 sec
  HOMO = -0.0942357761152855  LUMO = -0.0193241233715412
  mo_energy =
[-10.035372   -10.03015353 -10.02951609 -10.02556614 -10.02309054
 -10.02060052 -10.01701913 -10.01470566 -10.01121096 -10.01102017
 -10.01090241 -10.00757001 -10.00695485 -10.00406403  -9.99897741
  -9.99657836  -9.99618857  -9.99388765  -9.99360318  -9.99199648
  -9.98929058  -9.98333865  -0.86755416  -0.83565559  -0.7858261
  -0.75912987  -0.75488652  -0.73020782  -0.72350116  -0.69231275
  -0.68108739  -0.65966751  -0.62718365  -0.61760372  -0.60564995
  -0.5865413   -0.57198165  -0.55172579  -0.54380362  -0.51512189
  -0.49411876  -0.47535106  -0.45794271  -0.45517952  -0.4510407
  -0.43343887  -0.42477026  -0.41309928  -0.40663416  -0.39823671
  -0.38871588  -0.37322008  -0.36267171  -0.36034528  -0.35400377
  -0.34259956  -0.33383564  -0.31880082  -0.3077236   -0.29594042
  -0.29155192  -0.2866659   -0.27100843  -0.25217812  -0.24824577
  -0.22839459  -0.22041296  -0.21567137  -0.19699557  -0.18431257
  -0.164725    -0.13510558  -0.09423578  -0.01932412   0.0249093
   0.04867661   0.09015236   0.09883387   0.12187178   0.13251106
   0.16276308   0.21689842   0.22130043   0.28357437   0.29088696
   0.30601427   0.30874969   0.31534503   0.31830751   0.33169857
   0.35323158   0.35715578   0.35885007   0.37753957   0.39245257
   0.40231831   0.42408044   0.42764053   0.44545328   0.45372523
   0.47080982   0.48095843   0.49259852   0.51355956   0.53530171
   0.552911     0.56657388   0.57681919   0.58024354   0.60284056
   0.63642081   0.64349835   0.66157863   0.67440267   0.69338931
   0.69938569   0.7116616    0.72034924   0.74603714   0.80362755
   0.83287764   0.8478128    0.96703112   1.00028202]
nelec by numeric integration = 145.9999975587463
    CPU time for vxc     38.11 sec, wall time     15.87 sec
E1 = -4089.667958506048  Ecoul = 1890.1744552693567  Exc = -124.4294131417247
cycle= 7 E= -835.799927726214  delta_E= -6.98e-05  |g|= 0.00542  |ddm|= 0.0276
    CPU time for cycle= 7     38.53 sec, wall time     15.94 sec
  HOMO = -0.094222495323291  LUMO = -0.0192612217481516
  mo_energy =
[-10.0355862  -10.03023283 -10.02962046 -10.02576032 -10.02328706
 -10.02020082 -10.01682768 -10.01453995 -10.01148125 -10.01079677
 -10.01065341 -10.00743103 -10.00693393 -10.00460831  -9.99835792
  -9.99610538  -9.99596459  -9.99349759  -9.99344813  -9.99300365
  -9.98886523  -9.98393745  -0.86761464  -0.83562998  -0.78585099
  -0.75915201  -0.75482289  -0.73023058  -0.72349608  -0.69228215
  -0.68104915  -0.65962695  -0.62714613  -0.61755839  -0.60571331
  -0.58656172  -0.57198776  -0.55170829  -0.54374033  -0.51508082
  -0.4941108   -0.47530785  -0.45791648  -0.45521914  -0.45100159
  -0.43339536  -0.42471234  -0.41314329  -0.40657248  -0.39825895
  -0.38866382  -0.37327498  -0.36263846  -0.36036089  -0.35399128
  -0.34257398  -0.33391706  -0.31887708  -0.30774253  -0.29587507
  -0.29154338  -0.28667548  -0.27090499  -0.25216797  -0.24820494
  -0.22840392  -0.22045922  -0.21563159  -0.19701062  -0.18428165
  -0.16468139  -0.13508156  -0.0942225   -0.01926122   0.02493255
   0.04871261   0.09016442   0.09890157   0.12190711   0.13244843
   0.16276948   0.21690256   0.22127113   0.28366495   0.29091646
   0.30599459   0.30871449   0.31533262   0.31835136   0.33168405
   0.35322473   0.35717223   0.35885668   0.37762997   0.39255593
   0.40220374   0.42408244   0.42765314   0.44555955   0.45373368
   0.47086427   0.48101474   0.49260551   0.51362252   0.5353623
   0.55300401   0.5666279    0.57687466   0.58020664   0.60274832
   0.63645916   0.64347896   0.66150585   0.67445972   0.69342765
   0.69938434   0.71162816   0.7203568    0.7459965    0.80359936
   0.83275849   0.84788038   0.9670247    1.0002642 ]
nelec by numeric integration = 145.99999755842705
    CPU time for vxc     38.15 sec, wall time     15.80 sec
E1 = -4089.670188009606  Ecoul = 1890.176676358462  Exc = -124.42941469135747
cycle= 8 E= -835.7999376903  delta_E= -9.96e-06  |g|= 0.000715  |ddm|= 0.00813
    CPU time for cycle= 8     38.47 sec, wall time     15.85 sec
  HOMO = -0.0942753742068894  LUMO = -0.0192927981221309
  mo_energy =
[-10.03562495 -10.03010436 -10.02959702 -10.02580012 -10.02331308
 -10.02026267 -10.01695477 -10.01454509 -10.01155418 -10.0109545
 -10.01069059 -10.00756003 -10.00709661 -10.0045785   -9.99830209
  -9.99613472  -9.99605715  -9.99370362  -9.99343882  -9.99290651
  -9.98880524  -9.98388531  -0.86766334  -0.83564361  -0.78588208
  -0.75920229  -0.75483989  -0.73024471  -0.72349773  -0.69230973
  -0.68107788  -0.65964363  -0.62717541  -0.61759438  -0.60571532
  -0.58658974  -0.57201756  -0.55173283  -0.54379141  -0.51508656
  -0.49411956  -0.47534288  -0.45793473  -0.45522629  -0.4510394
  -0.43341453  -0.42473313  -0.41316958  -0.40660616  -0.39827782
  -0.38869344  -0.37330444  -0.36265636  -0.36036902  -0.35399673
  -0.3425926   -0.3339243   -0.31886464  -0.30776679  -0.29589642
  -0.29157655  -0.28671747  -0.27094218  -0.25218381  -0.24825099
  -0.22841325  -0.22044825  -0.21565255  -0.19702125  -0.18430903
  -0.1647114   -0.13510528  -0.09427537  -0.0192928    0.02491972
   0.04870359   0.09012946   0.09885343   0.12184888   0.1324659
   0.1627676    0.21686987   0.22126928   0.28361813   0.29090362
   0.30596051   0.30868973   0.31532664   0.31833826   0.3316567
   0.35321151   0.3571679    0.3588486    0.37758967   0.39249727
   0.40226686   0.42407055   0.42762253   0.4455107    0.45374277
   0.47081678   0.48095551   0.49258319   0.51359081   0.53531262
   0.55294074   0.5665895    0.57684365   0.58019401   0.60272102
   0.6364784    0.64347943   0.66149247   0.67441261   0.69339016
   0.69936225   0.71163509   0.7203514    0.74595337   0.80354977
   0.83273346   0.84788186   0.96696748   1.00026807]
nelec by numeric integration = 145.99999755838567
    CPU time for vxc     38.21 sec, wall time     15.75 sec
E1 = -4089.673636435898  Ecoul = 1890.1801651281057  Exc = -124.4294551346823
cycle= 9 E= -835.799937790273  delta_E= -1e-07  |g|= 0.000569  |ddm|= 0.0017
    CPU time for cycle= 9     38.66 sec, wall time     15.82 sec
  HOMO = -0.0942767139414534  LUMO = -0.019285599090546
  mo_energy =
[-10.0356253  -10.0301435  -10.02959349 -10.02579805 -10.0233143
 -10.02025766 -10.01695204 -10.01457616 -10.0115305  -10.01091546
 -10.01069563 -10.00751752 -10.00702667 -10.00465084  -9.99840828
  -9.99610142  -9.99602229  -9.99368147  -9.99346466  -9.99289885
  -9.98885697  -9.98391221  -0.86765603  -0.83565267  -0.78588482
  -0.75918886  -0.75484757  -0.73025544  -0.72350929  -0.69231579
  -0.68107011  -0.65964769  -0.62717498  -0.61759288  -0.60572705
  -0.58658733  -0.57201373  -0.55173154  -0.54378304  -0.51509248
  -0.49413327  -0.47533784  -0.4579401   -0.45523331  -0.45103464
  -0.4334157   -0.42473257  -0.41316259  -0.40659729  -0.39828244
  -0.38869649  -0.37329926  -0.36265967  -0.36036656  -0.35400559
  -0.34259489  -0.33392688  -0.31887736  -0.30776507  -0.29590248
  -0.29157493  -0.28670854  -0.27093002  -0.25218602  -0.24824477
  -0.22842023  -0.22045635  -0.21565754  -0.1970267   -0.18431105
  -0.1647067   -0.1351097   -0.09427671  -0.0192856    0.02491568
   0.04870161   0.09012862   0.09886185   0.12186383   0.13244916
   0.16275653   0.21686834   0.22125851   0.28363977   0.29089654
   0.3059628    0.30869203   0.31532817   0.31833421   0.3316649
   0.35321276   0.3571627    0.35884769   0.37759842   0.39251274
   0.40224813   0.42406678   0.4276156    0.44552821   0.45372644
   0.470822     0.48096564   0.49257609   0.51358882   0.5353155
   0.55295307   0.56659353   0.57684331   0.58018112   0.60271069
   0.63645906   0.64347173   0.66149359   0.6744155    0.69338327
   0.69935694   0.71162238   0.72033928   0.74595612   0.80355837
   0.83273459   0.84786846   0.96697706   1.00025538]
nelec by numeric integration = 145.99999755837814
    CPU time for vxc     37.79 sec, wall time     15.71 sec
E1 = -4089.6729280618756  Ecoul = 1890.1794724582076  Exc = -124.42947095067068
cycle= 10 E= -835.799937902137  delta_E= -1.12e-07  |g|= 0.000173  |ddm|= 0.000958
    CPU time for cycle= 10     38.29 sec, wall time     15.78 sec
  HOMO = -0.0942786660886271  LUMO = -0.0192893851682297
  mo_energy =
[-10.03562638 -10.0301829  -10.0296247  -10.02580075 -10.02330808
 -10.02026318 -10.01693426 -10.01456978 -10.01154054 -10.01088229
 -10.01072436 -10.00750611 -10.00706511 -10.00465421  -9.99838325
  -9.99612222  -9.99604551  -9.99368086  -9.99347688  -9.99290774
  -9.98886643  -9.98390394  -0.86765894  -0.83566196  -0.78588852
  -0.75919252  -0.75485311  -0.73025759  -0.7235146   -0.69231765
  -0.68107591  -0.65964983  -0.62717714  -0.6175965   -0.60572986
  -0.58659189  -0.57201782  -0.55173363  -0.54378312  -0.51509502
  -0.49413226  -0.47533892  -0.45794076  -0.45523674  -0.45103607
  -0.43341671  -0.42473907  -0.4131655   -0.40660162  -0.39828602
  -0.38869734  -0.37330318  -0.36266615  -0.3603698   -0.35401351
  -0.34260195  -0.33393184  -0.3188806   -0.30776868  -0.2959076
  -0.29157855  -0.28671091  -0.27093257  -0.25219123  -0.24824744
  -0.22842375  -0.22045998  -0.21566027  -0.19702947  -0.1843136
  -0.16471362  -0.13511349  -0.09427867  -0.01928939   0.0249111
   0.04869392   0.09012844   0.09885908   0.12186156   0.13244354
   0.16275252   0.21686567   0.2212516    0.283635     0.29088807
   0.30596008   0.30868685   0.31532491   0.31832816   0.33165998
   0.35320928   0.35715666   0.35884162   0.37759431   0.39251172
   0.40224654   0.42406574   0.4276132    0.44552472   0.45372068
   0.47081892   0.48096769   0.49257172   0.51358658   0.53531428
   0.55295094   0.56659213   0.57684425   0.58018266   0.60271115
   0.63645037   0.64346731   0.66148715   0.67441368   0.69338168
   0.69935642   0.71162001   0.72033515   0.74595021   0.80355338
   0.83272757   0.84785624   0.9669829    1.0002419 ]
nelec by numeric integration = 145.99999755840216
    CPU time for vxc     37.77 sec, wall time     15.68 sec
E1 = -4089.673603073806  Ecoul = 1890.180158797516  Exc = -124.42948228556057
cycle= 11 E= -835.799937909649  delta_E= -7.51e-09  |g|= 9.46e-05  |ddm|= 0.000328
    CPU time for cycle= 11     38.27 sec, wall time     15.76 sec
  HOMO = -0.0942784054495102  LUMO = -0.019286792409209
  mo_energy =
[-10.03561739 -10.03016553 -10.02961063 -10.02579815 -10.0233023
 -10.0202598  -10.01694222 -10.01455383 -10.01153211 -10.0108916
 -10.01071044 -10.00751348 -10.00704692 -10.00465345  -9.99838577
  -9.99610428  -9.99603942  -9.99369315  -9.99346553  -9.99291118
  -9.98885958  -9.983913    -0.8676551   -0.83565512  -0.78588638
  -0.75918847  -0.75484751  -0.73025573  -0.7235101   -0.69231653
  -0.68107271  -0.65964684  -0.62717549  -0.61759472  -0.60572599
  -0.58658864  -0.57201532  -0.55173168  -0.5437826   -0.51509144
  -0.49413018  -0.47533666  -0.45793731  -0.45523307  -0.45103558
  -0.43341399  -0.42473424  -0.4131646   -0.40659864  -0.39828425
  -0.38869573  -0.37329996  -0.36266224  -0.3603695   -0.35400778
  -0.34259789  -0.33393052  -0.31887713  -0.3077667   -0.29590401
  -0.29157668  -0.28671082  -0.27093177  -0.25218661  -0.24824454
  -0.22842127  -0.22045827  -0.21565642  -0.19702743  -0.18431139
  -0.16471029  -0.13511098  -0.09427841  -0.01928679   0.02491491
   0.04869874   0.09012878   0.09886212   0.12186409   0.13244726
   0.16275597   0.21686714   0.22125554   0.28363691   0.29089444
   0.30596105   0.30868985   0.31532582   0.3183319    0.33166082
   0.3532103    0.35716048   0.35884448   0.37759684   0.39251269
   0.40224409   0.42406847   0.42761472   0.44552742   0.45372887
   0.47082114   0.48096859   0.49257482   0.51358915   0.53531606
   0.55295162   0.56659457   0.57684623   0.58018428   0.60271096
   0.63645811   0.64347001   0.66148999   0.67441318   0.69338355
   0.69936106   0.71162242   0.72033967   0.7459536    0.8035569
   0.8327329    0.84786561   0.96698478   1.00025134]
nelec by numeric integration = 145.99999755840105
    CPU time for vxc     38.75 sec, wall time     15.99 sec
E1 = -4089.6732402916223  Ecoul = 1890.1797877217975  Exc = -124.42947399502908
cycle= 12 E= -835.799937912652  delta_E= -3e-09  |g|= 3.65e-05  |ddm|= 0.000187
    CPU time for cycle= 12     39.17 sec, wall time     16.06 sec
  HOMO = -0.0942763581852267  LUMO = -0.0192845971866661
  mo_energy =
[-10.03561859 -10.03016046 -10.02960868 -10.02579843 -10.02330335
 -10.02025761 -10.01694208 -10.01456083 -10.01153586 -10.01089125
 -10.01071031 -10.00751218 -10.0070493  -10.00465167  -9.99838361
  -9.99610327  -9.99603213  -9.99368402  -9.99346485  -9.99290592
  -9.98885241  -9.98389931  -0.867655    -0.83565346  -0.7858853
  -0.75918864  -0.75484705  -0.73025437  -0.72350858  -0.69231512
  -0.68107111  -0.65964543  -0.62717387  -0.61759333  -0.60572384
  -0.58658833  -0.57201499  -0.55173074  -0.54378156  -0.51509051
  -0.4941295   -0.47533625  -0.45793747  -0.45523187  -0.45103407
  -0.43341369  -0.42473364  -0.4131646   -0.40659797  -0.39828311
  -0.38869491  -0.37329942  -0.36266153  -0.36036802  -0.35400616
  -0.34259696  -0.33392974  -0.31887444  -0.30776603  -0.29590278
  -0.29157558  -0.28671008  -0.27093028  -0.25218616  -0.24824411
  -0.22842005  -0.22045631  -0.21565481  -0.19702528  -0.18430933
  -0.1647082   -0.13510923  -0.09427636  -0.0192846    0.02491641
   0.04870108   0.09013027   0.09886294   0.12186461   0.13244897
   0.16275736   0.21686841   0.22125869   0.2836381    0.29089555
   0.30596156   0.30869067   0.31532732   0.31833291   0.33166119
   0.35321101   0.35716189   0.35884581   0.37759704   0.39251323
   0.40224606   0.42407028   0.42761668   0.44552854   0.45372881
   0.47082158   0.48096853   0.49257524   0.51359037   0.53531732
   0.55295302   0.56659477   0.5768469    0.58018575   0.602713
   0.63645856   0.64347135   0.6614912    0.674415     0.69338458
   0.69936133   0.71162459   0.72034122   0.74595421   0.80355723
   0.83273328   0.84786624   0.96698505   1.00025285]
nelec by numeric integration = 145.9999975583975
    CPU time for vxc     38.38 sec, wall time     15.77 sec
E1 = -4089.673204469893  Ecoul = 1890.1797494754917  Exc = -124.42947157079713
cycle= 13 E= -835.799937912997  delta_E= -3.45e-10  |g|= 2.07e-05  |ddm|= 7.94e-05
    CPU time for cycle= 13     38.74 sec, wall time     15.83 sec
  HOMO = -0.0942774749466427  LUMO = -0.0192857567103502
  mo_energy =
[-10.03562093 -10.03016262 -10.02961061 -10.02579839 -10.02330574
 -10.02025814 -10.01694119 -10.01456049 -10.01153589 -10.01089262
 -10.01070946 -10.00751091 -10.00704988 -10.0046517   -9.9983849
  -9.99610511  -9.99603595  -9.99368736  -9.99346527  -9.99290669
  -9.98885653  -9.98390514  -0.86765608  -0.83565479  -0.78588596
  -0.75918952  -0.75484765  -0.73025512  -0.7235096   -0.6923158
  -0.6810721   -0.65964641  -0.62717475  -0.61759419  -0.60572525
  -0.58658923  -0.5720155   -0.55173142  -0.54378204  -0.51509129
  -0.49413018  -0.47533693  -0.45793788  -0.45523287  -0.45103492
  -0.43341416  -0.4247343   -0.41316475  -0.40659871  -0.39828372
  -0.38869558  -0.37330035  -0.36266217  -0.36036859  -0.35400736
  -0.34259755  -0.33393008  -0.31887591  -0.3077667   -0.29590335
  -0.29157615  -0.28671026  -0.27093089  -0.25218675  -0.24824489
  -0.22842075  -0.22045735  -0.21565591  -0.19702638  -0.18431044
  -0.16470934  -0.13511033  -0.09427747  -0.01928576   0.02491538
   0.04869975   0.09012951   0.09886225   0.12186375   0.13244802
   0.1627566    0.2168678    0.22125701   0.28363737   0.2908945
   0.30596125   0.30868991   0.31532659   0.31833247   0.33166109
   0.35321064   0.35716112   0.35884514   0.37759673   0.39251291
   0.40224577   0.42406927   0.42761575   0.4455278    0.453728
   0.47082108   0.48096811   0.49257472   0.51358923   0.53531618
   0.55295225   0.56659433   0.5768463    0.58018468   0.60271198
   0.63645792   0.64347039   0.6614904    0.67441437   0.69338389
   0.69936059   0.71162322   0.72034003   0.74595351   0.80355659
   0.83273202   0.84786535   0.96698356   1.00025126]
nelec by numeric integration = 145.9999975583984
    CPU time for vxc     38.14 sec, wall time     15.72 sec
E1 = -4089.6732416616624  Ecoul = 1890.1797886904883  Exc = -124.4294735941763
cycle= 14 E= -835.799937913149  delta_E= -1.52e-10  |g|= 6.06e-06  |ddm|= 3.72e-05
    CPU time for cycle= 14     38.49 sec, wall time     15.77 sec
  HOMO = -0.0942777045468023  LUMO = -0.0192859128484177
  mo_energy =
[-10.0356207  -10.03016281 -10.02961048 -10.02579909 -10.02330539
 -10.02025876 -10.016942   -10.01456025 -10.01153602 -10.01089288
 -10.01071014 -10.00751243 -10.00704969 -10.00465277  -9.99838508
  -9.99610513  -9.99603636  -9.99368727  -9.99346569  -9.99290776
  -9.98885666  -9.98390471  -0.86765624  -0.83565489  -0.78588637
  -0.75918959  -0.75484789  -0.73025535  -0.72350975  -0.69231611
  -0.68107234  -0.65964655  -0.62717494  -0.61759438  -0.60572522
  -0.58658927  -0.57201571  -0.55173165  -0.54378236  -0.51509137
  -0.49413034  -0.47533707  -0.45793799  -0.45523291  -0.45103504
  -0.43341427  -0.42473444  -0.41316492  -0.40659887  -0.39828397
  -0.38869579  -0.37330052  -0.36266228  -0.36036886  -0.35400745
  -0.34259777  -0.33393032  -0.31887593  -0.30776689  -0.29590357
  -0.29157652  -0.28671066  -0.27093123  -0.25218698  -0.24824506
  -0.228421    -0.2204575   -0.21565603  -0.19702661  -0.18431066
  -0.16470958  -0.1351105   -0.0942777   -0.01928591   0.02491528
   0.04869963   0.09012919   0.09886195   0.12186355   0.13244778
   0.16275633   0.21686741   0.22125701   0.2836371    0.29089438
   0.30596094   0.30868971   0.31532637   0.31833228   0.33166085
   0.35321047   0.35716098   0.35884498   0.37759651   0.39251253
   0.40224552   0.42406915   0.4276156    0.44552754   0.45372796
   0.47082081   0.4809679    0.49257452   0.51358909   0.53531604
   0.55295202   0.56659408   0.57684608   0.58018458   0.6027118
   0.63645787   0.64347026   0.66149017   0.67441406   0.69338372
   0.69936046   0.71162301   0.7203399    0.7459533    0.80355627
   0.83273192   0.84786522   0.9669835    1.00025122]
nelec by numeric integration = 145.9999975583989
    CPU time for vxc     38.04 sec, wall time     15.71 sec
E1 = -4089.673267945048  Ecoul = 1890.1798154714386  Exc = -124.42947409175233
cycle= 15 E= -835.79993791316  delta_E= -1.14e-11  |g|= 2.82e-06  |ddm|= 9.76e-06
    CPU time for cycle= 15     38.43 sec, wall time     15.78 sec
  HOMO = -0.0942777519753437  LUMO = -0.0192859034047723
  mo_energy =
[-10.03562053 -10.0301625  -10.02961059 -10.02579882 -10.02330503
 -10.02025835 -10.01694219 -10.01455986 -10.01153645 -10.01089214
 -10.01071025 -10.00751122 -10.00705068 -10.0046533   -9.99838472
  -9.996105    -9.99603461  -9.99368909  -9.9934655   -9.9929068
  -9.98885591  -9.98390508  -0.86765607  -0.8356549   -0.78588619
  -0.7591895   -0.75484771  -0.73025537  -0.72350965  -0.69231603
  -0.68107209  -0.65964641  -0.62717491  -0.61759437  -0.60572527
  -0.58658922  -0.57201558  -0.5517315   -0.54378221  -0.51509124
  -0.49413021  -0.47533691  -0.4579379   -0.45523293  -0.45103512
  -0.43341417  -0.42473436  -0.41316491  -0.40659866  -0.39828398
  -0.38869568  -0.37330035  -0.36266234  -0.36036864  -0.35400743
  -0.34259773  -0.33393032  -0.31887591  -0.30776679  -0.29590364
  -0.29157636  -0.28671053  -0.27093088  -0.25218678  -0.24824497
  -0.22842087  -0.22045731  -0.21565595  -0.19702646  -0.18431059
  -0.16470936  -0.1351104   -0.09427775  -0.0192859    0.02491531
   0.04869973   0.09012931   0.09886217   0.12186372   0.13244795
   0.16275651   0.21686754   0.22125686   0.28363747   0.29089441
   0.30596101   0.3086898    0.31532663   0.3183323    0.33166087
   0.35321056   0.35716104   0.35884506   0.37759664   0.39251285
   0.40224588   0.42406924   0.42761536   0.44552785   0.45372814
   0.47082089   0.48096803   0.49257449   0.51358919   0.53531603
   0.55295198   0.56659427   0.57684629   0.58018463   0.60271158
   0.6364579    0.64347042   0.6614903    0.67441397   0.69338353
   0.69936064   0.71162332   0.72034002   0.74595318   0.8035564
   0.83273204   0.84786531   0.96698385   1.00025127]
nelec by numeric integration = 145.99999755839784
    CPU time for vxc     38.01 sec, wall time     15.75 sec
E1 = -4089.673266066329  Ecoul = 1890.1798134405788  Exc = -124.42947393957272
Extra cycle  E= -835.799937913121  delta_E= 3.87e-11  |g|= 9.08e-06  |ddm|= 2.04e-05
    CPU time for scf_cycle    665.25 sec, wall time    271.71 sec
    CPU time for SCF    665.25 sec, wall time    271.71 sec
converged SCF energy = -835.799937913121
nelec by numeric integration = 145.99999755839784
    CPU time for vxc     38.03 sec, wall time     15.74 sec
 ** Mulliken pop  **
pop of  0 C 1s            1.99023
pop of  0 C 2s            1.07341
pop of  0 C 2px           1.02506
pop of  0 C 2py           0.97388
pop of  0 C 2pz           0.96594
pop of  1 C 1s            1.99056
pop of  1 C 2s            1.05778
pop of  1 C 2px           0.99020
pop of  1 C 2py           0.98940
pop of  1 C 2pz           0.97629
pop of  2 C 1s            1.99112
pop of  2 C 2s            1.19223
pop of  2 C 2px           0.98157
pop of  2 C 2py           0.92028
pop of  2 C 2pz           0.98809
pop of  3 C 1s            1.99103
pop of  3 C 2s            1.14970
pop of  3 C 2px           0.95578
pop of  3 C 2py           0.95890
pop of  3 C 2pz           0.97376
pop of  4 C 1s            1.99090
pop of  4 C 2s            1.13990
pop of  4 C 2px           1.02615
pop of  4 C 2py           0.94832
pop of  4 C 2pz           1.00915
pop of  5 C 1s            1.99080
pop of  5 C 2s            1.10602
pop of  5 C 2px           1.01519
pop of  5 C 2py           0.97085
pop of  5 C 2pz           1.00752
pop of  6 C 1s            1.99131
pop of  6 C 2s            1.20310
pop of  6 C 2px           0.96348
pop of  6 C 2py           0.95668
pop of  6 C 2pz           0.93583
pop of  7 C 1s            1.99132
pop of  7 C 2s            1.22215
pop of  7 C 2px           0.97964
pop of  7 C 2py           0.96533
pop of  7 C 2pz           0.93422
pop of  8 C 1s            1.99034
pop of  8 C 2s            1.09629
pop of  8 C 2px           1.01253
pop of  8 C 2py           0.96278
pop of  8 C 2pz           0.96620
pop of  9 C 1s            1.99091
pop of  9 C 2s            1.14796
pop of  9 C 2px           0.99610
pop of  9 C 2py           0.92305
pop of  9 C 2pz           0.93626
pop of  10 C 1s           1.99090
pop of  10 C 2s           1.17992
pop of  10 C 2px          1.01657
pop of  10 C 2py          0.92092
pop of  10 C 2pz          0.95705
pop of  11 C 1s           1.99168
pop of  11 C 2s           1.25930
pop of  11 C 2px          0.94796
pop of  11 C 2py          0.91958
pop of  11 C 2pz          0.94763
pop of  12 C 1s           1.99101
pop of  12 C 2s           1.18031
pop of  12 C 2px          0.98951
pop of  12 C 2py          0.93950
pop of  12 C 2pz          0.90829
pop of  13 C 1s           1.99151
pop of  13 C 2s           1.23525
pop of  13 C 2px          0.95238
pop of  13 C 2py          0.91301
pop of  13 C 2pz          0.90454
pop of  14 C 1s           1.99120
pop of  14 C 2s           1.18039
pop of  14 C 2px          1.00364
pop of  14 C 2py          0.92484
pop of  14 C 2pz          0.99361
pop of  15 C 1s           1.99076
pop of  15 C 2s           1.14046
pop of  15 C 2px          1.02978
pop of  15 C 2py          0.95035
pop of  15 C 2pz          0.99156
pop of  16 C 1s           1.99056
pop of  16 C 2s           1.02540
pop of  16 C 2px          1.03060
pop of  16 C 2py          0.98909
pop of  16 C 2pz          1.00405
pop of  17 C 1s           1.99125
pop of  17 C 2s           1.08409
pop of  17 C 2px          1.00084
pop of  17 C 2py          0.94228
pop of  17 C 2pz          0.96332
pop of  18 C 1s           1.99094
pop of  18 C 2s           1.13822
pop of  18 C 2px          1.02165
pop of  18 C 2py          0.93213
pop of  18 C 2pz          0.97585
pop of  19 C 1s           1.99194
pop of  19 C 2s           1.26275
pop of  19 C 2px          0.93017
pop of  19 C 2py          0.93513
pop of  19 C 2pz          0.97107
pop of  20 C 1s           1.99087
pop of  20 C 2s           1.16440
pop of  20 C 2px          0.98714
pop of  20 C 2py          0.98764
pop of  20 C 2pz          0.97128
pop of  21 C 1s           1.99109
pop of  21 C 2s           1.17653
pop of  21 C 2px          0.99634
pop of  21 C 2py          0.96269
pop of  21 C 2pz          0.96268
pop of  22 H 1s           0.90402
pop of  23 H 1s           0.93394
pop of  24 H 1s           0.90038
pop of  25 H 1s           0.89803
pop of  26 H 1s           0.96540
pop of  27 H 1s           0.90309
pop of  28 H 1s           0.92380
pop of  29 H 1s           0.91952
pop of  30 H 1s           0.90294
pop of  31 H 1s           0.89114
pop of  32 H 1s           0.90633
pop of  33 H 1s           0.91046
pop of  34 H 1s           0.91496
pop of  35 H 1s           0.92512
 ** Mulliken atomic charges  **
charge of    0C =     -0.02852
charge of    1C =     -0.00423
charge of    2C =     -0.07329
charge of    3C =     -0.02917
charge of    4C =     -0.11442
charge of    5C =     -0.09038
charge of    6C =     -0.05040
charge of    7C =     -0.09266
charge of    8C =     -0.02815
charge of    9C =      0.00572
charge of   10C =     -0.06536
charge of   11C =     -0.06614
charge of   12C =     -0.00862
charge of   13C =      0.00331
charge of   14C =     -0.09367
charge of   15C =     -0.10291
charge of   16C =     -0.03970
charge of   17C =      0.01824
charge of   18C =     -0.05880
charge of   19C =     -0.09107
charge of   20C =     -0.10132
charge of   21C =     -0.08933
charge of   22H =      0.09598
charge of   23H =      0.06606
charge of   24H =      0.09962
charge of   25H =      0.10197
charge of   26H =      0.03460
charge of   27H =      0.09691
charge of   28H =      0.07620
charge of   29H =      0.08048
charge of   30H =      0.09706
charge of   31H =      0.10886
charge of   32H =      0.09367
charge of   33H =      0.08954
charge of   34H =      0.08504
charge of   35H =      0.07488
Dipole moment(X, Y, Z, Debye): -0.08651, -0.54740,  0.01256
nelec by numeric integration = 145.99999755839784
    CPU time for vxc     37.62 sec, wall time     15.66 sec
E1 = -4089.673266066329  Ecoul = 1890.1798134405792  Exc = -124.42947393957272
nelec by numeric integration = 145.99999755839784
    CPU time for vxc     37.45 sec, wall time     15.64 sec
E1 = -4089.673266066329  Ecoul = 1890.179813440579  Exc = -124.4294739395727
