System: uname_result(system='Linux', node='cosmopc18', release='5.15.0-97-generic', version='#107-Ubuntu SMP Wed Feb 7 13:26:48 UTC 2024', machine='x86_64')  Threads 4
Python 3.11.8 (main, Feb 26 2024, 21:39:34) [GCC 11.2.0]
numpy 1.26.4  scipy 1.11.4
Date: Tue Apr  9 10:44:57 2024
PySCF version 2.3.0
PySCF path  /home/saade/miniconda3/envs/tutorial/lib/python3.11/site-packages/pyscf

[ENV] PYSCFAD_BACKEND torch
[CONFIG] conf_file None
[INPUT] verbose = 5
[INPUT] max_memory = 4000 
[INPUT] num. atoms = 36
[INPUT] num. electrons = 146
[INPUT] charge = 0
[INPUT] spin (= nelec alpha-beta = 2S) = 0
[INPUT] symmetry False subgroup None
[INPUT] Mole.unit = angstrom
[INPUT] Symbol           X                Y                Z      unit          X                Y                Z       unit  Magmom
[INPUT]  1 C      0.161307000000   3.745479000000   0.870009000000 AA    0.304826051975   7.077929515310   1.644078735907 Bohr   0.0
[INPUT]  2 C      0.007896000000   3.764799000000  -0.663432000000 AA    0.014921277480   7.114439024036  -1.253704782272 Bohr   0.0
[INPUT]  3 C     -0.046906000000   5.093964000000   1.546471000000 AA   -0.088639493599   9.626196848394   2.922406649582 Bohr   0.0
[INPUT]  4 C     -0.131995000000   2.538064000000   1.585712000000 AA   -0.249434399812   4.796245846618   2.996561392436 Bohr   0.0
[INPUT]  5 C      0.054044000000   5.045875000000  -1.444156000000 AA    0.102128358676   9.535321808790  -2.729059321147 Bohr   0.0
[INPUT]  6 C     -0.165233000000   2.305693000000  -1.316058000000 AA   -0.312245116740   4.357128297327  -2.486989184043 Bohr   0.0
[INPUT]  7 C     -0.087251000000   5.715490000000  -0.675982000000 AA   -0.164880494094  10.800710767690  -1.277420845136 Bohr   0.0
[INPUT]  8 C     -0.062895000000   6.145917000000   0.734501000000 AA   -0.118854324605  11.614099914309   1.388005728219 Bohr   0.0
[INPUT]  9 C      0.128698000000   0.943448000000   0.696579000000 AA    0.243203972779   1.782858332769   1.316343534123 Bohr   0.0
[INPUT] 10 C      0.074740000000   1.111974000000  -0.763605000000 AA    0.141238130550   2.101326317637  -1.443004317349 Bohr   0.0
[INPUT] 11 C     -0.201547000000   0.252780000000   1.438896000000 AA   -0.380868631228   0.477684969768   2.719119361732 Bohr   0.0
[INPUT] 12 C      0.128464000000   0.007371000000  -1.305131000000 AA    0.242761776866   0.013929171264  -2.466340146680 Bohr   0.0
[INPUT] 13 C      0.048272000000  -1.418756000000   0.699695000000 AA    0.091220859485  -2.681060277583   1.322231920728 Bohr   0.0
[INPUT] 14 C      0.157378000000  -1.307274000000  -0.851687000000 AA    0.297401318032  -2.470389829765  -1.609455173852 Bohr   0.0
[INPUT] 15 C     -0.130382000000  -2.590337000000   1.344143000000 AA   -0.246386271573  -4.895027500327   2.540062142251 Bohr   0.0
[INPUT] 16 C     -0.197665000000  -2.697917000000  -1.310847000000 AA   -0.373532714412  -5.098324236808  -2.477141821208 Bohr   0.0
[INPUT] 17 C      0.067463000000  -3.931542000000   0.495859000000 AA    0.127486593542  -7.429537627225   0.937037706401 Bohr   0.0
[INPUT] 18 C     -0.023174000000  -3.648258000000  -0.734384000000 AA   -0.043792513211  -6.894208451753  -1.387784630263 Bohr   0.0
[INPUT] 19 C      0.098986000000  -4.996181000000   1.528312000000 AA    0.187056430166  -9.441413758756   2.888091112886 Bohr   0.0
[INPUT] 20 C     -0.056412000000  -4.930831000000  -1.417049000000 AA   -0.106603230139  -9.317920156515  -2.677834515089 Bohr   0.0
[INPUT] 21 C     -0.018152000000  -6.179432000000   0.747415000000 AA   -0.034302308613 -11.677434085373   1.412409651392 Bohr   0.0
[INPUT] 22 C      0.074406000000  -6.173513000000  -0.743379000000 AA    0.140606962024 -11.666248796442  -1.404782716753 Bohr   0.0
[INPUT] 23 H     -0.205371000000   5.071780000000   2.462100000000 AA   -0.388094943928   9.584275164047   4.652694691292 Bohr   0.0
[INPUT] 24 H      0.151428000000   2.494403000000   2.504101000000 AA    0.286157447591   4.713738514293   4.732065078249 Bohr   0.0
[INPUT] 25 H      0.022927000000   4.971607000000  -2.594176000000 AA    0.043325750858   9.394975628971  -4.902282158920 Bohr   0.0
[INPUT] 26 H     -0.089391000000   2.488669000000  -2.335860000000 AA   -0.168924508001   4.702902824695  -4.414135665327 Bohr   0.0
[INPUT] 27 H      0.088650000000   7.177333000000  -1.390483000000 AA    0.167524220943  13.563193674803  -2.627632050864 Bohr   0.0
[INPUT] 28 H      0.056213000000   6.871415000000   1.323195000000 AA    0.106227174640  12.985092438228   2.500476159394 Bohr   0.0
[INPUT] 29 H     -0.086550000000  -0.048314000000   2.414540000000 AA   -0.163555796081  -0.091300227982   4.562819316807 Bohr   0.0
[INPUT] 30 H     -0.051190000000  -0.089449000000  -2.480229000000 AA   -0.096735080316  -0.169034112116  -4.686953536204 Bohr   0.0
[INPUT] 31 H     -0.086569000000  -2.411916000000   2.313089000000 AA   -0.163591700877  -4.557860675456   4.371104711744 Bohr   0.0
[INPUT] 32 H      0.080345000000  -2.409513000000  -2.359674000000 AA    0.151830045478  -4.553319663579  -4.459137603257 Bohr   0.0
[INPUT] 33 H      0.085001000000  -4.975514000000   2.278317000000 AA    0.160628610314  -9.402358788939   4.305395154941 Bohr   0.0
[INPUT] 34 H     -0.156738000000  -4.926876000000  -2.477272000000 AA   -0.296191893312  -9.310446289693  -4.681365616054 Bohr   0.0
[INPUT] 35 H      0.016445000000  -6.810359000000   1.395737000000 AA    0.031076546118 -12.869713319967   2.637560671922 Bohr   0.0
[INPUT] 36 H      0.098209000000  -7.046079000000  -1.277150000000 AA    0.185588112967 -13.315159562049  -2.413463719988 Bohr   0.0
[INPUT] ---------------- BASIS SET ---------------- 
[INPUT] l, kappa, [nprim/nctr], expnt,             c_1 c_2 ...
[INPUT] H
[INPUT] 0    0    [3    /1   ]  3.42525091        0.15432897
                                0.62391373        0.53532814
                                0.1688554         0.44463454
[INPUT] C
[INPUT] 0    0    [3    /1   ]  71.616837         0.15432897
                                13.045096         0.53532814
                                3.5305122         0.44463454
[INPUT] 0    0    [3    /1   ]  2.9412494         -0.09996723
                                0.6834831         0.39951283
                                0.2222899         0.70011547
[INPUT] 1    0    [3    /1   ]  2.9412494         0.15591627
                                0.6834831         0.60768372
                                0.2222899         0.39195739

nuclear repulsion = 1495.26198172312
number of shells = 80
number of NR pGTOs = 372
number of NR cGTOs = 124
basis = sto3g
ecp = {}
CPU time:      9225.96
atom C rad-grids = 99, ang-grids = [ 50  50  50  50  50  50  50  50  50  50  50  50  50  50  50  50  50  50
  50  50  50  50  50  50  50  50  50  50  50  50  50  86  86  86  86  86
  86  86  86  86  86  86  86 434 434 434 434 434 434 434 434 434 590 590
 590 590 590 590 590 590 590 590 590 590 590 590 590 590 590 590 590 590
 590 590 590 590 590 590 590 434 434 434 434 434 434 434 434 434 434 434
 434 434 434 434 434 434 434 434 434]
atom H rad-grids = 99, ang-grids = [ 50  50  50  50  50  50  50  50  50  50  50  50  50  50  50  50  50  50
  50  50  50  50  50  50  50  50  50  50  86  86  86  86  86  86  86 434
 434 434 434 434 434 434 434 590 590 590 590 590 590 590 590 590 590 590
 590 590 590 590 590 590 590 590 590 590 590 590 590 590 590 434 434 434
 434 434 434 434 434 434 434 434 434 434 434 434 434 434 434 434 434 434
 434 434 434 434 434 434 434 434 434]
tot_boxes 5270, boxes in each direction [ 8 29 15]
Padding 0 grids
tot grids = 1157832


******** <class 'pyscf.dft.rks.RKS'> ********
method = RKS
initial guess = minao
damping factor = 0
level_shift factor = 0
DIIS = <class 'pyscf.scf.diis.CDIIS'>
diis_start_cycle = 1
diis_space = 8
SCF conv_tol = 1e-10
SCF conv_tol_grad = None
SCF max_cycles = 50
direct_scf = True
direct_scf_tol = 1e-13
chkfile to save SCF result = /home/saade/mlelec/tutorials/tmpe6vvizc8
max_memory 4000 MB (current use 636 MB)
XC library pyscf.dft.libxc version 6.1.0
    S. Lehtola, C. Steigemann, M. J.T. Oliveira, and M. A.L. Marques.,  SoftwareX 7, 1–5 (2018)
XC functionals = b3lypg
    P. J. Stephens, F. J. Devlin, C. F. Chabalowski, and M. J. Frisch.,  J. Phys. Chem. 98, 11623 (1994)
radial grids: 
    Treutler-Ahlrichs [JCP 102, 346 (1995); DOI:10.1063/1.469408] (M4) radial grids
    
becke partition: Becke, JCP 88, 2547 (1988); DOI:10.1063/1.454033
pruning grids: <function nwchem_prune at 0x7f9db5616ca0>
grids dens level: 3
symmetrized grids: False
atomic radii adjust function: <function treutler_atomic_radii_adjust at 0x7f9db5617380>
User specified grid scheme (99, 590)
small_rho_cutoff = 1e-07
Set gradient conv threshold to 1e-05
Initial guess from minao.
nelec by numeric integration = 145.26563104145646
    CPU time for vxc     37.16 sec, wall time     15.39 sec
E1 = -4088.445637119708  Ecoul = 1877.7109064724357  Exc = -126.38165041690631
init E= -841.854399341056
cond(S) = 40.837773237371685
    CPU time for initialize scf     46.77 sec, wall time     17.74 sec
  HOMO = -0.211406791563151  LUMO = -0.156205495142953
  mo_energy =
[-1.01830266e+01 -1.01811134e+01 -1.01719010e+01 -1.01660909e+01
 -1.01629986e+01 -1.01478169e+01 -1.01410368e+01 -1.01397600e+01
 -1.01259894e+01 -1.01052840e+01 -1.01042303e+01 -1.01031756e+01
 -1.01020500e+01 -1.00981412e+01 -1.00964130e+01 -1.00897235e+01
 -1.00864717e+01 -1.00861608e+01 -1.00809736e+01 -1.00798936e+01
 -1.00787655e+01 -1.00695468e+01 -1.12151766e+00 -1.09658697e+00
 -1.08406861e+00 -9.91084135e-01 -9.80189117e-01 -9.59617524e-01
 -9.38404032e-01 -9.00360262e-01 -8.69442072e-01 -8.58233583e-01
 -8.16312941e-01 -7.58843319e-01 -7.41493340e-01 -7.22503036e-01
 -6.95238035e-01 -6.88697397e-01 -6.71303970e-01 -6.46716024e-01
 -6.34646841e-01 -6.01196225e-01 -5.82251322e-01 -5.80246243e-01
 -5.61779452e-01 -5.49622878e-01 -5.45523003e-01 -5.27346368e-01
 -5.07926827e-01 -4.96634164e-01 -4.93944530e-01 -4.79582335e-01
 -4.77843695e-01 -4.73261819e-01 -4.65586711e-01 -4.54663562e-01
 -4.48758897e-01 -4.26159738e-01 -4.15691075e-01 -3.96627002e-01
 -3.85514675e-01 -3.71473089e-01 -3.59597370e-01 -3.45645134e-01
 -3.44541769e-01 -3.38836512e-01 -3.25406412e-01 -2.96367394e-01
 -2.74532968e-01 -2.59737447e-01 -2.47590767e-01 -2.37823936e-01
 -2.11406792e-01 -1.56205495e-01 -1.04131727e-01 -6.79313529e-02
 -4.35683700e-02 -3.82073693e-02 -2.67543820e-02 -1.67908523e-02
 -1.85771208e-03  2.07990899e-03  2.32889137e-02  9.32977279e-02
  1.00164058e-01  1.32348621e-01  1.42259237e-01  1.64166033e-01
  1.67885482e-01  1.92463676e-01  2.07144544e-01  2.13342120e-01
  2.30576989e-01  2.49709989e-01  2.77913411e-01  2.90656136e-01
  2.99381430e-01  3.14369000e-01  3.23929714e-01  3.35279353e-01
  3.38835524e-01  3.57813555e-01  3.75096262e-01  4.00935289e-01
  4.06265614e-01  4.40614599e-01  4.52128434e-01  4.81474415e-01
  4.89478201e-01  5.04217950e-01  5.11151635e-01  5.39989886e-01
  5.44801476e-01  5.68906712e-01  6.18146547e-01  6.44398366e-01
  6.49407502e-01  6.83685129e-01  7.47312606e-01  7.68133423e-01
  8.98642229e-01  9.71965311e-01  1.08041304e+00  1.19621235e+00]
nelec by numeric integration = 146.00000226854698
    CPU time for vxc     37.46 sec, wall time     15.50 sec
E1 = -4101.79072695925  Ecoul = 1896.7693105144958  Exc = -125.02869216818411
cycle= 1 E= -834.788126889816  delta_E= 7.07  |g|= 0.378  |ddm|= 9.41
    CPU time for cycle= 1     37.80 sec, wall time     15.55 sec
  HOMO = -0.0981461616464139  LUMO = -0.0185095785600784
  mo_energy =
[-10.18895033 -10.10336904 -10.08822919 -10.07989423 -10.07127391
 -10.04987114 -10.02092677 -10.01461791 -10.01246592 -10.002774
  -9.99403949  -9.99388563  -9.98654704  -9.98120879  -9.96453848
  -9.96220769  -9.94400897  -9.93829933  -9.93553137  -9.89794444
  -9.89630822  -9.87053176  -0.92834478  -0.82233474  -0.81917105
  -0.8094355   -0.76010063  -0.75047219  -0.73538641  -0.7056099
  -0.68042929  -0.65828524  -0.64477864  -0.62205369  -0.61944223
  -0.59130172  -0.58444702  -0.54949311  -0.540332    -0.52584756
  -0.50364989  -0.50337473  -0.48144212  -0.46597906  -0.45903101
  -0.44401437  -0.43361655  -0.42424487  -0.42032553  -0.40979554
  -0.3912602   -0.38453777  -0.37368439  -0.35576377  -0.33886334
  -0.33687963  -0.32927038  -0.32175244  -0.31140574  -0.30771981
  -0.29516756  -0.26597103  -0.25616094  -0.23978969  -0.22799311
  -0.21049705  -0.20162925  -0.19464786  -0.18258012  -0.16172172
  -0.13007889  -0.10730405  -0.09814616  -0.01850958   0.02097555
   0.06953053   0.07640249   0.08997089   0.10313155   0.15057597
   0.16043831   0.18670937   0.21157282   0.22316156   0.25763753
   0.27446277   0.28867302   0.29297686   0.31935936   0.34424603
   0.35836957   0.37255039   0.38075478   0.39951781   0.40277713
   0.41241216   0.43187859   0.43841944   0.45279402   0.47273216
   0.50273234   0.5195997    0.53312344   0.53513752   0.54700492
   0.55549444   0.57329678   0.63288038   0.637021     0.66167438
   0.67822811   0.69155885   0.70008096   0.71210286   0.75518996
   0.77163054   0.78334799   0.837868     0.94806995   0.96313278
   1.06271825   1.20070328   1.29696538   1.29952755]
nelec by numeric integration = 146.00000220152134
    CPU time for vxc     37.64 sec, wall time     15.45 sec
E1 = -4098.604552033825  Ecoul = 1893.6633989469894  Exc = -124.9426052238524
cycle= 2 E= -834.621776587566  delta_E= 0.166  |g|= 0.76  |ddm|= 1.78
    CPU time for cycle= 2     38.10 sec, wall time     15.52 sec
  HOMO = -0.101216286704274  LUMO = -0.0164407966439425
  mo_energy =
[-10.04859304 -10.04473091 -10.04118666 -10.03598473 -10.03120946
 -10.02744589 -10.02361478 -10.02126133 -10.0153791  -10.01537014
 -10.01425109 -10.0115429  -10.00777907 -10.00680293 -10.0038598
 -10.00327091  -9.99625474  -9.98467441  -9.98202165  -9.96911552
  -9.95785639  -9.95320686  -0.86707281  -0.85813047  -0.8424254
  -0.78209744  -0.77465573  -0.76362684  -0.73895475  -0.71540985
  -0.69591564  -0.68755911  -0.65818152  -0.61256486  -0.60880398
  -0.58961618  -0.57632017  -0.56275816  -0.54174873  -0.53133386
  -0.5186509   -0.48906053  -0.47620885  -0.46837607  -0.46004941
  -0.45460861  -0.44832811  -0.42949539  -0.41392971  -0.39966983
  -0.38039236  -0.37538102  -0.37435405  -0.36746294  -0.35895132
  -0.34879618  -0.34706373  -0.33688982  -0.33107534  -0.30532102
  -0.28091411  -0.27056686  -0.25887036  -0.24860799  -0.24649276
  -0.2394743   -0.21970268  -0.20269387  -0.18007515  -0.15888409
  -0.15656763  -0.13390297  -0.10121629  -0.0164408    0.03460827
   0.06534911   0.08981318   0.11052603   0.11879821   0.13649563
   0.1458423    0.15938573   0.17364588   0.23628495   0.25196513
   0.27825528   0.28931142   0.31315438   0.32458169   0.33913528
   0.34964717   0.36725048   0.37242811   0.39013203   0.41608099
   0.42923396   0.43596169   0.45203177   0.46276037   0.47154518
   0.47706209   0.49217278   0.51007987   0.53103159   0.53319637
   0.58693737   0.6005829    0.61273015   0.63227892   0.642167
   0.65297017   0.67546552   0.68211037   0.72868005   0.74074446
   0.7624683    0.79553025   0.79948413   0.89820233   0.91510463
   1.03009275   1.13329265   1.26562265   1.35441051]
nelec by numeric integration = 146.0000022064273
    CPU time for vxc     38.71 sec, wall time     15.75 sec
E1 = -4098.672988444578  Ecoul = 1893.501477033204  Exc = -124.91410575819255
cycle= 3 E= -834.823635446444  delta_E= -0.202  |g|= 0.238  |ddm|= 1.55
    CPU time for cycle= 3     39.16 sec, wall time     15.82 sec
  HOMO = -0.111198032412089  LUMO = -0.0312529171451142
  mo_energy =
[-10.07498984 -10.0648714  -10.04985297 -10.04822486 -10.04180615
 -10.03134489 -10.03029001 -10.02853242 -10.02782417 -10.02503938
 -10.01954636 -10.01887062 -10.01689254 -10.01131196 -10.01019171
 -10.00245901 -10.00043606 -10.00013288  -9.99896066  -9.997244
  -9.98261187  -9.96857831  -0.88249986  -0.86530945  -0.85086512
  -0.78764501  -0.78121466  -0.7763152   -0.74158654  -0.72565693
  -0.6986101   -0.69022427  -0.66070875  -0.62239494  -0.60923833
  -0.598994    -0.58726869  -0.56411349  -0.54673403  -0.53873982
  -0.51883451  -0.49746675  -0.48699834  -0.47967839  -0.46342182
  -0.45985113  -0.44885961  -0.43231511  -0.42037613  -0.39959584
  -0.39027151  -0.38834454  -0.37501019  -0.37361294  -0.37236129
  -0.35947672  -0.35594677  -0.34771914  -0.33026506  -0.3021279
  -0.29650427  -0.28016149  -0.26511774  -0.25937188  -0.24830083
  -0.24254463  -0.22422558  -0.21428225  -0.18098492  -0.1689181
  -0.15970726  -0.14753375  -0.11119803  -0.03125292   0.02963177
   0.06374233   0.08541395   0.09941832   0.11163613   0.11599098
   0.13036044   0.14840392   0.16655616   0.23632064   0.24700298
   0.26384276   0.28660552   0.30768988   0.3161387    0.32848562
   0.33319408   0.36337017   0.36784004   0.38644452   0.41673348
   0.42418985   0.43566965   0.4379767    0.45163455   0.4693031
   0.47566837   0.48175704   0.51699537   0.52809217   0.53871493
   0.56153295   0.59748445   0.60171373   0.62041808   0.63817038
   0.64699783   0.66312589   0.68323511   0.72146118   0.73444911
   0.76765993   0.78889321   0.79855531   0.90236241   0.91953208
   1.02785882   1.13242721   1.23766159   1.32817037]
nelec by numeric integration = 146.00000223437618
    CPU time for vxc     37.94 sec, wall time     15.54 sec
E1 = -4099.378094859912  Ecoul = 1894.2120850356312  Exc = -124.9353962201863
cycle= 4 E= -834.839424321345  delta_E= -0.0158  |g|= 0.136  |ddm|= 0.615
    CPU time for cycle= 4     38.34 sec, wall time     15.60 sec
  HOMO = -0.112754939185926  LUMO = -0.029891949028289
  mo_energy =
[-10.07855957 -10.06759632 -10.05163975 -10.05051978 -10.04935697
 -10.03711143 -10.03593724 -10.03011042 -10.02682971 -10.02526101
 -10.02409342 -10.02328792 -10.02165558 -10.01916123 -10.0139109
 -10.0118423  -10.0107112  -10.00983173 -10.00905562  -9.98067594
  -9.97944046  -9.9770489   -0.88482716  -0.87174186  -0.85267233
  -0.78756496  -0.78489714  -0.77722095  -0.74426368  -0.72567047
  -0.70185979  -0.69371477  -0.66376872  -0.6220988   -0.61279124
  -0.59772269  -0.58754943  -0.56624797  -0.548272    -0.54187336
  -0.52133333  -0.4964852   -0.48562888  -0.48131464  -0.4651315
  -0.46310427  -0.4523935   -0.43542932  -0.42184475  -0.40368085
  -0.39188682  -0.38990388  -0.37922857  -0.37829899  -0.37117498
  -0.3592965   -0.35820661  -0.34690845  -0.33628695  -0.30725911
  -0.29876423  -0.28134624  -0.26475529  -0.26382195  -0.25178318
  -0.24601163  -0.22724894  -0.21567166  -0.18570516  -0.17095103
  -0.16296201  -0.14590674  -0.11275494  -0.02989195   0.02761928
   0.06015317   0.08086005   0.09817013   0.1100189    0.11793856
   0.13226352   0.14724175   0.16360504   0.23256768   0.24263141
   0.26138324   0.28342685   0.30583958   0.31134462   0.32731307
   0.33162096   0.35973343   0.36337458   0.38127377   0.4141865
   0.42024703   0.43246713   0.43659525   0.44916584   0.46855154
   0.4745967    0.4770032    0.5108153    0.52781394   0.53320314
   0.56828591   0.59476947   0.60177795   0.62520689   0.63829066
   0.64486936   0.66639728   0.67727513   0.71950688   0.73397321
   0.76185696   0.78922877   0.79241885   0.89554296   0.91303991
   1.02775172   1.1254252    1.24102499   1.32558244]
nelec by numeric integration = 146.00000223102217
    CPU time for vxc     37.65 sec, wall time     15.46 sec
E1 = -4099.726170684264  Ecoul = 1894.5587797400972  Exc = -124.93988895631473
cycle= 5 E= -834.845298177359  delta_E= -0.00587  |g|= 0.0569  |ddm|= 0.295
    CPU time for cycle= 5     38.07 sec, wall time     15.53 sec
  HOMO = -0.113121799946224  LUMO = -0.0300488455510041
  mo_energy =
[-10.07277405 -10.06138129 -10.0515933  -10.04652034 -10.04638573
 -10.03548107 -10.03313199 -10.03220047 -10.02642103 -10.02520665
 -10.0244737  -10.02070094 -10.02004687 -10.01454797 -10.0135579
 -10.01272867 -10.01241265 -10.01185581 -10.00687177  -9.99548805
  -9.97381687  -9.97255027  -0.88096464  -0.86974979  -0.85143406
  -0.78730278  -0.78442209  -0.77611352  -0.74328418  -0.7255627
  -0.70148772  -0.69266651  -0.66313683  -0.62141624  -0.61236626
  -0.59838422  -0.58671105  -0.56569693  -0.54728558  -0.54039482
  -0.52018807  -0.49549181  -0.48571078  -0.47998309  -0.46333319
  -0.46200839  -0.45172952  -0.43455202  -0.42121192  -0.40276316
  -0.39018945  -0.3880933   -0.37874219  -0.37662132  -0.37110543
  -0.35908068  -0.35759902  -0.34700728  -0.33625461  -0.30664157
  -0.2971802   -0.28078236  -0.26462327  -0.26329728  -0.25105693
  -0.24515922  -0.22592901  -0.21523306  -0.18597775  -0.1708913
  -0.16214073  -0.14613809  -0.1131218   -0.03004885   0.02732329
   0.06045096   0.08140888   0.09869672   0.11155628   0.1179302
   0.13186219   0.14822947   0.16490567   0.23349139   0.24421178
   0.26326156   0.28465259   0.30752963   0.31269085   0.32851774
   0.3335796    0.36137982   0.36439545   0.38189896   0.41490028
   0.42069945   0.43329114   0.43881617   0.45053441   0.46903665
   0.47439126   0.47790295   0.51083191   0.52914425   0.53349136
   0.56606422   0.59610508   0.60237606   0.62538585   0.63719677
   0.64496149   0.66520939   0.67787719   0.72245404   0.73384502
   0.76167507   0.78937607   0.79333303   0.89685116   0.91398985
   1.02838263   1.12872328   1.24307061   1.33018074]
nelec by numeric integration = 146.00000222850247
    CPU time for vxc     37.42 sec, wall time     15.42 sec
E1 = -4099.495961050021  Ecoul = 1894.3230541944179  Exc = -124.9354922586672
cycle= 6 E= -834.846417391148  delta_E= -0.00112  |g|= 0.0153  |ddm|= 0.105
    CPU time for cycle= 6     37.89 sec, wall time     15.50 sec
  HOMO = -0.112706397664484  LUMO = -0.0291977362128471
  mo_energy =
[-10.07275887 -10.06213898 -10.05138125 -10.04517455 -10.04499029
 -10.03587665 -10.03238677 -10.03187978 -10.02727516 -10.02595891
 -10.02337224 -10.01952016 -10.01864179 -10.01211114 -10.0120173
 -10.01118895 -10.01050995 -10.01005905 -10.007148    -9.9922337
  -9.97597897  -9.9737322   -0.88112577  -0.86911632  -0.85065859
  -0.787013    -0.78403839  -0.77552354  -0.74309527  -0.72507993
  -0.70094057  -0.69252357  -0.66265681  -0.6209285   -0.61219289
  -0.59793072  -0.58657723  -0.56519954  -0.54697978  -0.54025552
  -0.52031678  -0.49523855  -0.48521108  -0.47978897  -0.46312938
  -0.46186266  -0.4515196   -0.43430835  -0.42103479  -0.40244886
  -0.39017203  -0.38789011  -0.37808604  -0.3763819   -0.37061735
  -0.35847253  -0.35701493  -0.3465341   -0.33551108  -0.30623629
  -0.29699635  -0.28004484  -0.26410063  -0.2628344   -0.25093302
  -0.24479033  -0.22586006  -0.21500888  -0.18526557  -0.17052255
  -0.16207444  -0.14562588  -0.1127064   -0.02919774   0.02789572
   0.06072946   0.08179412   0.09905115   0.11192247   0.11858057
   0.13262593   0.14898797   0.16501672   0.23395376   0.24460351
   0.26338325   0.28493429   0.30772024   0.31310425   0.32883161
   0.33386776   0.36169119   0.36465203   0.3825513    0.4154665
   0.42104105   0.43380237   0.43883821   0.45075789   0.46937636
   0.47497693   0.47833971   0.51150156   0.52898704   0.53405113
   0.56711748   0.59621529   0.60252371   0.62565803   0.63814024
   0.64517021   0.66590974   0.67856369   0.72162255   0.73379826
   0.76277652   0.78936717   0.7937926    0.89749131   0.91466057
   1.02762567   1.12923103   1.24408465   1.32984321]
nelec by numeric integration = 146.00000222945656
    CPU time for vxc     37.47 sec, wall time     15.49 sec
E1 = -4099.496678207507  Ecoul = 1894.3232003960218  Exc = -124.93499675541496
cycle= 7 E= -834.846492843778  delta_E= -7.55e-05  |g|= 0.00555  |ddm|= 0.0275
    CPU time for cycle= 7     37.87 sec, wall time     15.55 sec
  HOMO = -0.112704039226233  LUMO = -0.0290741979969183
  mo_energy =
[-10.07273608 -10.06204004 -10.05115035 -10.04567235 -10.0454289
 -10.03517758 -10.03180242 -10.03142452 -10.02575859 -10.02550541
 -10.02315575 -10.02003637 -10.01877485 -10.01297402 -10.01227121
 -10.01152022 -10.01104199 -10.00976221 -10.00653543  -9.99229528
  -9.9753086   -9.97324256  -0.88093577  -0.86925456  -0.85073649
  -0.78683337  -0.78393435  -0.77558822  -0.74292826  -0.72491005
  -0.70088429  -0.69245298  -0.66258646  -0.62082355  -0.61212137
  -0.59782578  -0.58642439  -0.56528336  -0.54696395  -0.54013175
  -0.5201939   -0.49527191  -0.48509184  -0.47974764  -0.46320967
  -0.4617889   -0.45148091  -0.4342522   -0.42093491  -0.40245584
  -0.38998986  -0.3877756   -0.37810069  -0.37639347  -0.37051726
  -0.35848476  -0.3570644   -0.34638967  -0.33568575  -0.30622674
  -0.29674137  -0.28010024  -0.26400261  -0.2627486   -0.25073886
  -0.24477197  -0.22568957  -0.21478788  -0.18515836  -0.17018611
  -0.16191273  -0.14559647  -0.11270404  -0.0290742    0.02802962
   0.06097761   0.08202728   0.09934096   0.11190516   0.11869403
   0.13267498   0.1488761    0.16517368   0.2339667    0.24461717
   0.26354645   0.28497796   0.30788137   0.31315326   0.3289526
   0.33402658   0.36182218   0.36487848   0.38256499   0.41542899
   0.42111213   0.43379757   0.438995     0.45082624   0.46950368
   0.47505132   0.47832686   0.51141074   0.52903938   0.53387573
   0.56727785   0.59635705   0.60263761   0.62572237   0.63814269
   0.64519082   0.6659282    0.67845697   0.72195403   0.73412582
   0.76251654   0.78963404   0.79395007   0.89753763   0.91473431
   1.02813523   1.12887941   1.24374778   1.32996852]
nelec by numeric integration = 146.00000222924467
    CPU time for vxc     37.67 sec, wall time     15.47 sec
E1 = -4099.492464129924  Ecoul = 1894.3189376356809  Exc = -124.9349581946619
cycle= 8 E= -834.846502965783  delta_E= -1.01e-05  |g|= 0.0015  |ddm|= 0.00913
    CPU time for cycle= 8     38.10 sec, wall time     15.54 sec
  HOMO = -0.112735517807158  LUMO = -0.0290699361969381
  mo_energy =
[-10.07271727 -10.06192551 -10.05124019 -10.04568571 -10.04567885
 -10.03508676 -10.0317653  -10.03147594 -10.02591546 -10.02534388
 -10.02328801 -10.02022343 -10.01901575 -10.0127323  -10.01215522
 -10.01130596 -10.01080747 -10.01007062 -10.00658938  -9.99228415
  -9.97544678  -9.97329176  -0.88089531  -0.86923534  -0.85085638
  -0.78681631  -0.78391946  -0.77569658  -0.74295918  -0.72491818
  -0.70092104  -0.6924524   -0.6626103   -0.62085559  -0.61209571
  -0.59782437  -0.58641545  -0.56529973  -0.54700151  -0.54014388
  -0.52022679  -0.49531885  -0.48511329  -0.47976108  -0.46320359
  -0.46182763  -0.45147774  -0.43424756  -0.42091047  -0.4024309
  -0.38998465  -0.3877817   -0.37809657  -0.37639582  -0.37055412
  -0.35854131  -0.35712436  -0.34640121  -0.33559826  -0.30627526
  -0.29676035  -0.28020133  -0.26398738  -0.26276542  -0.25076366
  -0.24480654  -0.22572495  -0.21478403  -0.18517345  -0.17016983
  -0.16192248  -0.14566195  -0.11273552  -0.02906994   0.02801811
   0.06100794   0.08202847   0.09935518   0.11187735   0.11866523
   0.13265013   0.148781     0.16513544   0.23394188   0.24459826
   0.26355428   0.284957     0.30786898   0.31311433   0.32892315
   0.33398928   0.36181997   0.36480759   0.38257702   0.41543485
   0.42111888   0.43377435   0.43897944   0.45079276   0.46947235
   0.47504924   0.47830776   0.51150369   0.52899083   0.53396042
   0.56726025   0.59632543   0.60265108   0.62565432   0.63815161
   0.64519356   0.66588401   0.6785141    0.72187603   0.73417017
   0.76256494   0.7896838    0.79383724   0.89748837   0.91462497
   1.02806869   1.12895114   1.24356864   1.33002712]
nelec by numeric integration = 146.0000022292084
    CPU time for vxc     37.69 sec, wall time     15.56 sec
E1 = -4099.495117167355  Ecoul = 1894.321566772134  Exc = -124.93493490000884
cycle= 9 E= -834.846503572107  delta_E= -6.06e-07  |g|= 0.000809  |ddm|= 0.00293
    CPU time for cycle= 9     38.03 sec, wall time     15.61 sec
  HOMO = -0.112747764695948  LUMO = -0.0290553720843462
  mo_energy =
[-10.07268268 -10.06190273 -10.051154   -10.04579725 -10.04558102
 -10.03511527 -10.03172857 -10.0316466  -10.02597353 -10.0253377
 -10.0232599  -10.02015868 -10.01893288 -10.01283238 -10.01218583
 -10.01140202 -10.01093615 -10.00996997 -10.00659912  -9.9922759
  -9.97545601  -9.97330997  -0.88087354  -0.8693079   -0.85081353
  -0.78681376  -0.78395706  -0.77564873  -0.74297896  -0.72492311
  -0.70093249  -0.6924842   -0.6626198   -0.62084254  -0.61215782
  -0.59781822  -0.5864011   -0.56530813  -0.54698536  -0.54013742
  -0.52024921  -0.49531183  -0.48510383  -0.47975241  -0.46320062
  -0.46182146  -0.45151638  -0.43424035  -0.42090952  -0.40245105
  -0.38997981  -0.38776656  -0.37812707  -0.37642629  -0.3705343
  -0.35851913  -0.357115    -0.34639014  -0.33566105  -0.30626147
  -0.29673602  -0.28016336  -0.26400032  -0.26275745  -0.25080813
  -0.24480792  -0.22574024  -0.21478767  -0.18519541  -0.17016502
  -0.16194792  -0.14564987  -0.11274776  -0.02905537   0.02801144
   0.0609686    0.0820138    0.09936413   0.11186412   0.118689
   0.13266022   0.14881052   0.16512913   0.23394487   0.24459924
   0.26356691   0.28494169   0.30786446   0.31309823   0.32892866
   0.33401957   0.36181285   0.36479394   0.38257087   0.41542322
   0.42111684   0.43378364   0.43900504   0.45082114   0.46946293
   0.47504012   0.47831496   0.51143475   0.52901824   0.53389572
   0.56728028   0.5963209    0.6026606    0.62566788   0.63812866
   0.64516675   0.66590648   0.6784549    0.72187754   0.7341639
   0.76252632   0.78968279   0.79387299   0.89743534   0.91465405
   1.02802072   1.12886017   1.2436376    1.33005128]
nelec by numeric integration = 146.00000222932505
    CPU time for vxc     37.80 sec, wall time     15.50 sec
E1 = -4099.494947337333  Ecoul = 1894.3214209702087  Exc = -124.9349591323462
cycle= 10 E= -834.846503776348  delta_E= -2.04e-07  |g|= 0.000386  |ddm|= 0.00148
    CPU time for cycle= 10     38.31 sec, wall time     15.58 sec
  HOMO = -0.112756988966442  LUMO = -0.0290617914954259
  mo_energy =
[-10.07268797 -10.06192322 -10.05121519 -10.04575068 -10.04558034
 -10.03512898 -10.03169751 -10.031545   -10.02597161 -10.02538219
 -10.02322114 -10.02016408 -10.01899583 -10.01286353 -10.01222746
 -10.01142183 -10.01095591 -10.01002605 -10.00667175  -9.99227386
  -9.97546499  -9.97335193  -0.88087547  -0.86929692  -0.85083527
  -0.78682161  -0.78396075  -0.77567022  -0.74298794  -0.72492444
  -0.70093893  -0.69249344  -0.66262752  -0.62084413  -0.61215169
  -0.59782727  -0.58640981  -0.56531661  -0.54699769  -0.54014775
  -0.52025164  -0.49531365  -0.48510395  -0.47975451  -0.46320374
  -0.46182889  -0.4515137   -0.43425818  -0.42092181  -0.40246345
  -0.3899871   -0.3877713   -0.37813388  -0.37642887  -0.37053719
  -0.35852908  -0.35712555  -0.34639334  -0.33566321  -0.30628124
  -0.29674135  -0.28018251  -0.26400914  -0.26276631  -0.25080329
  -0.24482267  -0.22574839  -0.21478916  -0.18520205  -0.17017027
  -0.16195879  -0.14565879  -0.11275699  -0.02906179   0.02799772
   0.06096834   0.08200553   0.09935893   0.11185374   0.11868747
   0.13265547   0.14879544   0.16511415   0.23393196   0.24458548
   0.2635581    0.28493977   0.30786585   0.31309742   0.32892241
   0.33402355   0.36180707   0.36479023   0.38255786   0.4154128
   0.42110654   0.4337671    0.43900918   0.45080912   0.46945841
   0.4750387    0.47830222   0.51143006   0.52900191   0.5338968
   0.56729053   0.59630327   0.60265229   0.62566275   0.63811861
   0.64516564   0.66589931   0.67845176   0.72185877   0.73415476
   0.76251777   0.78967341   0.79383373   0.89744879   0.9146257
   1.02802731   1.12886985   1.24363213   1.33004407]
nelec by numeric integration = 146.0000022293522
    CPU time for vxc     38.62 sec, wall time     15.78 sec
E1 = -4099.495469822761  Ecoul = 1894.3219668392724  Exc = -124.93498256259386
cycle= 11 E= -834.84650382296  delta_E= -4.66e-08  |g|= 0.000161  |ddm|= 0.000734
    CPU time for cycle= 11     39.05 sec, wall time     15.85 sec
  HOMO = -0.112749297283239  LUMO = -0.0290489598422333
  mo_energy =
[-10.07267872 -10.06190898 -10.05119404 -10.04574822 -10.04556973
 -10.03512323 -10.03169964 -10.03157767 -10.02596248 -10.02536887
 -10.02322445 -10.02014629 -10.0189783  -10.01285098 -10.01221462
 -10.01141017 -10.01094221 -10.0100093  -10.0066178   -9.99224777
  -9.9754507   -9.97332264  -0.8808685   -0.86929371  -0.85082135
  -0.78681539  -0.78395697  -0.77565642  -0.74297841  -0.72491623
  -0.70093309  -0.69248557  -0.66261852  -0.62083594  -0.61215032
  -0.59781975  -0.58640284  -0.56531011  -0.54698993  -0.54013986
  -0.52024873  -0.49530718  -0.485098    -0.47974881  -0.46320137
  -0.46182229  -0.45151085  -0.43425047  -0.42091492  -0.40245554
  -0.3899792   -0.38776314  -0.37812926  -0.37642343  -0.37052839
  -0.35851897  -0.35711606  -0.34638559  -0.33566052  -0.30627635
  -0.29673068  -0.28017063  -0.26400284  -0.26275778  -0.25079968
  -0.24481404  -0.22573899  -0.2147825   -0.18519507  -0.17016458
  -0.16194885  -0.14564709  -0.1127493   -0.02904896   0.02800775
   0.06097334   0.0820125    0.09936556   0.11186338   0.11869773
   0.13266582   0.14880656   0.16512685   0.23393845   0.24459347
   0.26356624   0.28494458   0.30787136   0.31310275   0.32892956
   0.33402897   0.36181512   0.36479569   0.38256409   0.41541991
   0.42111201   0.43377377   0.43901257   0.45081563   0.46946414
   0.47504251   0.47830829   0.51143337   0.5290138    0.53389837
   0.56729938   0.59631337   0.60265894   0.62567227   0.63812779
   0.64517336   0.6659116    0.678458     0.72187298   0.73415991
   0.76251992   0.78967892   0.79385055   0.89745024   0.91463727
   1.02802915   1.12887339   1.2436456    1.33005239]
nelec by numeric integration = 146.000002229333
    CPU time for vxc     38.17 sec, wall time     15.61 sec
E1 = -4099.49475416504  Ecoul = 1894.3212295650399  Exc = -124.9349609551306
cycle= 12 E= -834.846503832008  delta_E= -9.05e-09  |g|= 3.94e-05  |ddm|= 0.000281
    CPU time for cycle= 12     38.66 sec, wall time     15.69 sec
  HOMO = -0.112750854248361  LUMO = -0.0290495511390272
  mo_energy =
[-10.07267714 -10.06190693 -10.05119906 -10.04574811 -10.04557297
 -10.03512015 -10.03170354 -10.03157413 -10.0259507  -10.02536062
 -10.02322707 -10.02014707 -10.01897742 -10.01283935 -10.0122077
 -10.01140775 -10.0109408  -10.01000652 -10.00663767  -9.99224807
  -9.97544025  -9.97332726  -0.88086807  -0.86929117  -0.85082373
  -0.78681333  -0.78395247  -0.77565904  -0.74297788  -0.72491661
  -0.70093182  -0.69248316  -0.66261997  -0.62083673  -0.61214721
  -0.59781881  -0.58640327  -0.56530967  -0.54699089  -0.54014048
  -0.52024574  -0.49530746  -0.48509768  -0.47974987  -0.46320153
  -0.46182273  -0.45150962  -0.43425059  -0.4209143   -0.40245569
  -0.38997901  -0.3877634   -0.378126    -0.37642197  -0.37052972
  -0.35851992  -0.35711688  -0.34638525  -0.33565876  -0.30627587
  -0.29673546  -0.28017167  -0.2640002   -0.26275742  -0.2507965
  -0.24481306  -0.2257376   -0.21478225  -0.1851938   -0.17016285
  -0.16194707  -0.14564746  -0.11275085  -0.02904955   0.02800822
   0.06097529   0.08201279   0.09936679   0.11186535   0.1186971
   0.13266597   0.14880633   0.16512742   0.23393795   0.24459369
   0.26356598   0.28494465   0.30787169   0.31310354   0.32893045
   0.33402592   0.36181479   0.36479785   0.38256434   0.41541993
   0.42111144   0.43377481   0.43901062   0.45081449   0.46946569
   0.47504395   0.47830875   0.51143595   0.52900763   0.53389864
   0.5672985    0.59631469   0.60266025   0.62567212   0.63812915
   0.6451749    0.66590866   0.67845926   0.72187342   0.73416231
   0.76252398   0.78968109   0.79384695   0.89745198   0.9146359
   1.02803536   1.12887763   1.24364343   1.33005352]
nelec by numeric integration = 146.00000222933315
    CPU time for vxc     38.75 sec, wall time     15.79 sec
E1 = -4099.494913885668  Ecoul = 1894.321387664208  Exc = -124.93495933371317
cycle= 13 E= -834.846503832051  delta_E= -4.27e-11  |g|= 3.76e-05  |ddm|= 0.000121
    CPU time for cycle= 13     39.19 sec, wall time     15.86 sec
  HOMO = -0.112750755985364  LUMO = -0.0290491664931261
  mo_energy =
[-10.07267687 -10.06190722 -10.05119402 -10.04575174 -10.04557078
 -10.03512084 -10.03169969 -10.03157612 -10.0259587  -10.02536307
 -10.02322566 -10.02014803 -10.01897883 -10.01284744 -10.01221282
 -10.01141018 -10.01094252 -10.01000824 -10.00662929  -9.99224857
  -9.97544805  -9.97332738  -0.8808673   -0.86929398  -0.85082262
  -0.78681403  -0.78395562  -0.77565785  -0.7429791   -0.72491661
  -0.7009332   -0.69248562  -0.66261978  -0.62083638  -0.61214995
  -0.59781911  -0.58640257  -0.56531053  -0.54699047  -0.54014013
  -0.52024826  -0.49530783  -0.48509779  -0.47974928  -0.46320142
  -0.46182265  -0.45151101  -0.43425047  -0.42091459  -0.40245619
  -0.38997898  -0.38776298  -0.37812875  -0.37642365  -0.37052907
  -0.35851969  -0.35711687  -0.34638524  -0.33566058  -0.30627655
  -0.29673263  -0.28017144  -0.26400191  -0.26275772  -0.25079932
  -0.2448144   -0.22573921  -0.21478229  -0.18519504  -0.17016288
  -0.16194897  -0.1456479   -0.11275076  -0.02904917   0.02800756
   0.0609739    0.08201251   0.09936688   0.11186312   0.11869758
   0.13266553   0.14880586   0.16512609   0.23393792   0.24459332
   0.26356651   0.28494408   0.30787143   0.31310248   0.32892988
   0.33402794   0.36181471   0.36479583   0.38256371   0.41541941
   0.4211116    0.43377385   0.43901232   0.4508154    0.46946422
   0.47504291   0.47830817   0.51143366   0.52901053   0.53389766
   0.56729939   0.59631325   0.60266001   0.62567168   0.6381277
   0.6451731    0.66591024   0.6784575    0.72187178   0.73416178
   0.7625207    0.78968078   0.79384847   0.89745007   0.9146365
   1.02803082   1.12887342   1.24364425   1.3300539 ]
nelec by numeric integration = 146.00000222933738
    CPU time for vxc     37.97 sec, wall time     15.56 sec
E1 = -4099.494860645615  Ecoul = 1894.3213364492178  Exc = -124.93496135933772
cycle= 14 E= -834.846503832612  delta_E= -5.61e-10  |g|= 5.04e-06  |ddm|= 6.5e-05
    CPU time for cycle= 14     38.33 sec, wall time     15.62 sec
  HOMO = -0.112750801195877  LUMO = -0.0290491099596581
  mo_energy =
[-10.07267744 -10.06190753 -10.05119581 -10.04575154 -10.04557195
 -10.03512063 -10.03169946 -10.03157588 -10.02595865 -10.02536329
 -10.02322499 -10.02014866 -10.01897948 -10.01284833 -10.01221161
 -10.01140973 -10.01094231 -10.01000807 -10.00662922  -9.99224761
  -9.9754482   -9.97332641  -0.88086748  -0.86929409  -0.85082322
  -0.78681406  -0.78395544  -0.77565834  -0.74297907  -0.72491647
  -0.70093316  -0.69248546  -0.66261978  -0.62083636  -0.61214985
  -0.5978191   -0.58640267  -0.56531059  -0.54699068  -0.54014024
  -0.52024828  -0.49530788  -0.4850977   -0.4797494   -0.4632016
  -0.46182287  -0.4515111   -0.43425069  -0.4209146   -0.40245621
  -0.38997907  -0.38776312  -0.37812848  -0.37642375  -0.37052901
  -0.35851981  -0.35711717  -0.34638515  -0.33566046  -0.30627674
  -0.2967326   -0.28017175  -0.26400176  -0.26275771  -0.2507992
  -0.24481439  -0.22573918  -0.21478217  -0.18519486  -0.17016286
  -0.1619489   -0.14564785  -0.1127508   -0.02904911   0.02800758
   0.06097399   0.08201255   0.09936687   0.11186321   0.11869763
   0.1326657    0.14880559   0.16512625   0.23393767   0.24459302
   0.26356634   0.28494387   0.30787136   0.3131023    0.32892975
   0.33402788   0.3618147    0.36479593   0.3825639    0.41541943
   0.42111159   0.43377389   0.43901224   0.45081518   0.4694644
   0.47504308   0.47830811   0.51143374   0.52901033   0.5338976
   0.56729975   0.59631324   0.60265989   0.62567162   0.63812793
   0.6451732    0.66591013   0.67845757   0.72187184   0.73416181
   0.76252123   0.78968076   0.79384802   0.89744985   0.91463591
   1.0280309    1.1288732    1.24364356   1.33005361]
nelec by numeric integration = 146.00000222933772
    CPU time for vxc     37.61 sec, wall time     15.53 sec
E1 = -4099.494883266063  Ecoul = 1894.3213593269106  Exc = -124.93496161658595
cycle= 15 E= -834.846503832616  delta_E= -3.64e-12  |g|= 4.04e-06  |ddm|= 1.17e-05
    CPU time for cycle= 15     38.18 sec, wall time     15.62 sec
  HOMO = -0.112750675110475  LUMO = -0.0290490050158875
  mo_energy =
[-10.07267647 -10.0619066  -10.05119428 -10.04575111 -10.04557028
 -10.03512104 -10.03169868 -10.03157712 -10.0259582  -10.02536335
 -10.02322516 -10.0201475  -10.01897869 -10.01284706 -10.01221339
 -10.01141075 -10.01094297 -10.0100084  -10.0066288   -9.99224892
  -9.97544697  -9.97332713  -0.88086693  -0.86929388  -0.85082245
  -0.78681402  -0.78395568  -0.77565764  -0.74297896  -0.72491648
  -0.70093315  -0.69248555  -0.66261969  -0.62083615  -0.61214999
  -0.5978191   -0.58640244  -0.56531051  -0.54699038  -0.54014
  -0.52024813  -0.4953077   -0.4850977   -0.47974912  -0.46320131
  -0.46182252  -0.45151099  -0.43425039  -0.42091452  -0.40245616
  -0.38997879  -0.38776272  -0.37812883  -0.3764235   -0.37052887
  -0.35851955  -0.35711675  -0.34638513  -0.33566076  -0.30627647
  -0.29673227  -0.28017129  -0.26400194  -0.26275762  -0.25079928
  -0.24481427  -0.22573903  -0.21478214  -0.18519512  -0.1701629
  -0.16194884  -0.14564775  -0.11275068  -0.02904901   0.02800758
   0.06097388   0.08201253   0.09936692   0.11186325   0.11869778
   0.13266561   0.14880602   0.16512625   0.23393803   0.24459345
   0.26356671   0.28494422   0.30787161   0.31310259   0.32893
   0.33402828   0.36181488   0.36479588   0.38256373   0.4154194
   0.42111165   0.43377389   0.43901258   0.45081556   0.46946427
   0.47504293   0.4783083    0.5114335    0.5290108    0.53389757
   0.56729957   0.59631339   0.60266008   0.62567185   0.63812759
   0.64517323   0.66591037   0.67845746   0.72187216   0.73416169
   0.76252035   0.78968074   0.79384857   0.89745006   0.91463652
   1.02803097   1.12887369   1.24364465   1.33005431]
nelec by numeric integration = 146.00000222933744
    CPU time for vxc     38.06 sec, wall time     15.55 sec
E1 = -4099.4948353068385  Ecoul = 1894.3213106840728  Exc = -124.93496093295992
Extra cycle  E= -834.846503832603  delta_E= 1.27e-11  |g|= 7.47e-06  |ddm|= 1.67e-05
    CPU time for scf_cycle    660.24 sec, wall time    267.81 sec
    CPU time for SCF    660.24 sec, wall time    267.81 sec
converged SCF energy = -834.846503832603
nelec by numeric integration = 146.00000222933744
    CPU time for vxc     37.54 sec, wall time     15.56 sec
 ** Mulliken pop  **
pop of  0 C 1s            1.99120
pop of  0 C 2s            1.21024
pop of  0 C 2px           0.97170
pop of  0 C 2py           0.92896
pop of  0 C 2pz           0.90791
pop of  1 C 1s            1.99169
pop of  1 C 2s            1.24823
pop of  1 C 2px           0.92385
pop of  1 C 2py           0.86512
pop of  1 C 2pz           0.92711
pop of  2 C 1s            1.99106
pop of  2 C 2s            1.13697
pop of  2 C 2px           0.96080
pop of  2 C 2py           0.96858
pop of  2 C 2pz           1.03606
pop of  3 C 1s            1.99210
pop of  3 C 2s            1.27948
pop of  3 C 2px           0.92511
pop of  3 C 2py           0.91498
pop of  3 C 2pz           0.98307
pop of  4 C 1s            1.99201
pop of  4 C 2s            1.05951
pop of  4 C 2px           1.01535
pop of  4 C 2py           0.99715
pop of  4 C 2pz           1.06044
pop of  5 C 1s            1.99102
pop of  5 C 2s            1.16400
pop of  5 C 2px           1.02423
pop of  5 C 2py           0.91107
pop of  5 C 2pz           0.99157
pop of  6 C 1s            1.99323
pop of  6 C 2s            1.02060
pop of  6 C 2px           0.97597
pop of  6 C 2py           0.97908
pop of  6 C 2pz           1.01573
pop of  7 C 1s            1.99050
pop of  7 C 2s            1.10740
pop of  7 C 2px           1.03367
pop of  7 C 2py           1.04037
pop of  7 C 2pz           0.93829
pop of  8 C 1s            1.99253
pop of  8 C 2s            1.07783
pop of  8 C 2px           0.98406
pop of  8 C 2py           0.95637
pop of  8 C 2pz           0.98585
pop of  9 C 1s            1.99026
pop of  9 C 2s            1.04693
pop of  9 C 2px           1.02432
pop of  9 C 2py           1.01694
pop of  9 C 2pz           0.94716
pop of  10 C 1s           1.99275
pop of  10 C 2s           1.07682
pop of  10 C 2px          0.99679
pop of  10 C 2py          0.98185
pop of  10 C 2pz          1.05998
pop of  11 C 1s           1.99088
pop of  11 C 2s           1.08331
pop of  11 C 2px          1.01638
pop of  11 C 2py          0.97415
pop of  11 C 2pz          0.99669
pop of  12 C 1s           1.99220
pop of  12 C 2s           1.26089
pop of  12 C 2px          0.92094
pop of  12 C 2py          0.91147
pop of  12 C 2pz          0.92142
pop of  13 C 1s           1.99111
pop of  13 C 2s           1.17577
pop of  13 C 2px          0.95113
pop of  13 C 2py          0.93091
pop of  13 C 2pz          0.93850
pop of  14 C 1s           1.99114
pop of  14 C 2s           1.18983
pop of  14 C 2px          0.99833
pop of  14 C 2py          0.95396
pop of  14 C 2pz          1.00191
pop of  15 C 1s           1.99137
pop of  15 C 2s           1.06736
pop of  15 C 2px          1.02881
pop of  15 C 2py          0.96278
pop of  15 C 2pz          1.03236
pop of  16 C 1s           1.99106
pop of  16 C 2s           1.10755
pop of  16 C 2px          0.96712
pop of  16 C 2py          0.92260
pop of  16 C 2pz          0.94325
pop of  17 C 1s           1.99064
pop of  17 C 2s           0.97082
pop of  17 C 2px          1.04514
pop of  17 C 2py          1.03734
pop of  17 C 2pz          1.03654
pop of  18 C 1s           1.99167
pop of  18 C 2s           1.07543
pop of  18 C 2px          1.05825
pop of  18 C 2py          0.98216
pop of  18 C 2pz          1.05811
pop of  19 C 1s           1.99098
pop of  19 C 2s           1.17328
pop of  19 C 2px          0.96531
pop of  19 C 2py          0.92679
pop of  19 C 2pz          0.98080
pop of  20 C 1s           1.99091
pop of  20 C 2s           1.14558
pop of  20 C 2px          0.96635
pop of  20 C 2py          1.02497
pop of  20 C 2pz          0.97544
pop of  21 C 1s           1.99079
pop of  21 C 2s           1.16378
pop of  21 C 2px          1.02987
pop of  21 C 2py          0.98481
pop of  21 C 2pz          0.92805
pop of  22 H 1s           0.88967
pop of  23 H 1s           0.90574
pop of  24 H 1s           0.88261
pop of  25 H 1s           0.91332
pop of  26 H 1s           1.04361
pop of  27 H 1s           0.86656
pop of  28 H 1s           0.87847
pop of  29 H 1s           0.94495
pop of  30 H 1s           0.91052
pop of  31 H 1s           0.90738
pop of  32 H 1s           0.87458
pop of  33 H 1s           0.91811
pop of  34 H 1s           0.88497
pop of  35 H 1s           0.90464
 ** Mulliken atomic charges  **
charge of    0C =     -0.01001
charge of    1C =      0.04400
charge of    2C =     -0.09348
charge of    3C =     -0.09474
charge of    4C =     -0.12447
charge of    5C =     -0.08188
charge of    6C =      0.01540
charge of    7C =     -0.11024
charge of    8C =      0.00336
charge of    9C =     -0.02561
charge of   10C =     -0.10818
charge of   11C =     -0.06142
charge of   12C =     -0.00693
charge of   13C =      0.01258
charge of   14C =     -0.13516
charge of   15C =     -0.08268
charge of   16C =      0.06843
charge of   17C =     -0.08048
charge of   18C =     -0.16562
charge of   19C =     -0.03717
charge of   20C =     -0.10325
charge of   21C =     -0.09730
charge of   22H =      0.11033
charge of   23H =      0.09426
charge of   24H =      0.11739
charge of   25H =      0.08668
charge of   26H =     -0.04361
charge of   27H =      0.13344
charge of   28H =      0.12153
charge of   29H =      0.05505
charge of   30H =      0.08948
charge of   31H =      0.09262
charge of   32H =      0.12542
charge of   33H =      0.08189
charge of   34H =      0.11503
charge of   35H =      0.09536
Dipole moment(X, Y, Z, Debye):  0.44201,  0.63652,  0.36404
nelec by numeric integration = 146.00000222933744
    CPU time for vxc     37.39 sec, wall time     15.45 sec
E1 = -4099.4948353068385  Ecoul = 1894.3213106840738  Exc = -124.93496093295992
nelec by numeric integration = 146.00000222933744
    CPU time for vxc     37.85 sec, wall time     15.75 sec
E1 = -4099.4948353068385  Ecoul = 1894.3213106840735  Exc = -124.93496093295994
