System: uname_result(system='Linux', node='cosmopc18', release='5.15.0-97-generic', version='#107-Ubuntu SMP Wed Feb 7 13:26:48 UTC 2024', machine='x86_64')  Threads 4
Python 3.11.8 (main, Feb 26 2024, 21:39:34) [GCC 11.2.0]
numpy 1.26.4  scipy 1.11.4
Date: Tue Apr  9 12:00:40 2024
PySCF version 2.3.0
PySCF path  /home/saade/miniconda3/envs/tutorial/lib/python3.11/site-packages/pyscf

[ENV] PYSCFAD_BACKEND torch
[CONFIG] conf_file None
[INPUT] verbose = 5
[INPUT] max_memory = 4000 
[INPUT] num. atoms = 36
[INPUT] num. electrons = 146
[INPUT] charge = 0
[INPUT] spin (= nelec alpha-beta = 2S) = 0
[INPUT] symmetry False subgroup None
[INPUT] Mole.unit = angstrom
[INPUT] Symbol           X                Y                Z      unit          X                Y                Z       unit  Magmom
[INPUT]  1 C     -0.099732000000   3.501611000000   0.556316000000 AA   -0.188466165855   6.617085784764   1.051284878714 Bohr   0.0
[INPUT]  2 C     -0.029206000000   3.781314000000  -0.907088000000 AA   -0.055191341194   7.145647850984  -1.714147890879 Bohr   0.0
[INPUT]  3 C     -0.148719000000   4.804386000000   1.436652000000 AA   -0.281038179519   9.078973736695   2.714878816309 Bohr   0.0
[INPUT]  4 C      0.095082000000   2.393807000000   1.455499000000 AA    0.179678939376   4.523639625067   2.750494484578 Bohr   0.0
[INPUT]  5 C     -0.005807000000   4.918686000000  -1.374598000000 AA   -0.010973639605   9.294969432732  -2.597613751375 Bohr   0.0
[INPUT]  6 C     -0.152764000000   2.514029000000  -1.619013000000 AA   -0.288682121693   4.750826279214  -3.059491162110 Bohr   0.0
[INPUT]  7 C     -0.003790000000   5.918332000000  -0.637151000000 AA   -0.007162062012  11.184026594249  -1.204040889993 Bohr   0.0
[INPUT]  8 C      0.221781000000   6.092511000000   0.812032000000 AA    0.419105349632  11.513177200900   1.534518084383 Bohr   0.0
[INPUT]  9 C     -0.005104000000   1.217413000000   0.606696000000 AA   -0.009645162140   2.300577150485   1.146489280869 Bohr   0.0
[INPUT] 10 C     -0.052065000000   1.015874000000  -0.744157000000 AA   -0.098388590675   1.919723637066  -1.406252923678 Bohr   0.0
[INPUT] 11 C      0.131650000000  -0.092135000000   1.341685000000 AA    0.248782444299  -0.174109916487   2.535417195437 Bohr   0.0
[INPUT] 12 C      0.069206000000  -0.077317000000  -1.427488000000 AA    0.130780386177  -0.146107954773  -2.697561366103 Bohr   0.0
[INPUT] 13 C      0.000918000000  -1.157820000000   0.905467000000 AA    0.001734768582  -2.187962701544   1.711084644832 Bohr   0.0
[INPUT] 14 C     -0.014888000000  -1.181139000000  -0.828279000000 AA   -0.028134242543  -2.232029225043  -1.565220464729 Bohr   0.0
[INPUT] 15 C     -0.078856000000  -2.613400000000   1.400895000000 AA   -0.149016243279  -4.938610253938   2.647307879273 Bohr   0.0
[INPUT] 16 C      0.033789000000  -2.512670000000  -1.405766000000 AA    0.063851956023  -4.748258141411  -2.656512735225 Bohr   0.0
[INPUT] 17 C      0.035916000000  -3.692943000000   0.559752000000 AA    0.067871403490  -6.978650863630   1.057777977678 Bohr   0.0
[INPUT] 18 C      0.046731000000  -3.664901000000  -0.779719000000 AA    0.088308791527  -6.925659163645  -1.473455364120 Bohr   0.0
[INPUT] 19 C     -0.064739000000  -4.906666000000   1.504007000000 AA   -0.122338979578  -9.272254924715   2.842161319429 Bohr   0.0
[INPUT] 20 C     -0.005602000000  -4.934898000000  -1.276838000000 AA   -0.010586245750  -9.325605672664  -2.412874125437 Bohr   0.0
[INPUT] 21 C      0.123305000000  -6.106032000000   0.621483000000 AA    0.233012679789 -11.538728187830   1.174432661073 Bohr   0.0
[INPUT] 22 C     -0.022999000000  -6.130468000000  -0.798475000000 AA   -0.043461811139 -11.584905535410  -1.508899067312 Bohr   0.0
[INPUT] 23 H     -0.018494000000   4.814120000000   2.492922000000 AA   -0.034948594948   9.097368330791   4.710939829903 Bohr   0.0
[INPUT] 24 H     -0.163628000000   2.521262000000   2.337833000000 AA   -0.309212106310   4.764494668273   4.417864094970 Bohr   0.0
[INPUT] 25 H     -0.017384000000   4.967770000000  -2.605641000000 AA   -0.032850998949   9.387724749831  -4.923947868938 Bohr   0.0
[INPUT] 26 H     -0.127879000000   2.373655000000  -2.511871000000 AA   -0.241656287083   4.485557864204  -4.746748250237 Bohr   0.0
[INPUT] 27 H     -0.176688000000   7.184870000000  -1.227092000000 AA   -0.333891929497  13.577436540604  -2.318867809645 Bohr   0.0
[INPUT] 28 H     -0.086086000000   6.876422000000   1.028312000000 AA   -0.162678963159  12.994554296934   1.943228050604 Bohr   0.0
[INPUT] 29 H      0.005573000000  -0.271870000000   2.404564000000 AA    0.010531443692  -0.513759841486   4.543967408989 Bohr   0.0
[INPUT] 30 H     -0.066807000000  -0.205484000000  -2.439463000000 AA   -0.126246933204  -0.388308482980  -4.609916961010 Bohr   0.0
[INPUT] 31 H     -0.054763000000  -2.480597000000   2.673745000000 AA   -0.103487071760  -4.687648955418   5.052645776925 Bohr   0.0
[INPUT] 32 H     -0.095760000000  -2.320085000000  -2.337364000000 AA   -0.180960173688  -4.384325235712  -4.416977813418 Bohr   0.0
[INPUT] 33 H     -0.097679000000  -4.883848000000   2.644544000000 AA   -0.184586558121  -9.229135154005   4.997463884362 Bohr   0.0
[INPUT] 34 H      0.017941000000  -4.826136000000  -2.591156000000 AA    0.033903576401  -9.120075279904  -4.896575186024 Bohr   0.0
[INPUT] 35 H      0.012309000000  -7.178333000000   1.254485000000 AA    0.023260638867 -13.565083400927   2.370633077375 Bohr   0.0
[INPUT] 36 H      0.253895000000  -6.939609000000  -1.295428000000 AA    0.479792014396 -13.113960421567  -2.448004134093 Bohr   0.0
[INPUT] ---------------- BASIS SET ---------------- 
[INPUT] l, kappa, [nprim/nctr], expnt,             c_1 c_2 ...
[INPUT] H
[INPUT] 0    0    [3    /1   ]  3.42525091        0.15432897
                                0.62391373        0.53532814
                                0.1688554         0.44463454
[INPUT] C
[INPUT] 0    0    [3    /1   ]  71.616837         0.15432897
                                13.045096         0.53532814
                                3.5305122         0.44463454
[INPUT] 0    0    [3    /1   ]  2.9412494         -0.09996723
                                0.6834831         0.39951283
                                0.2222899         0.70011547
[INPUT] 1    0    [3    /1   ]  2.9412494         0.15591627
                                0.6834831         0.60768372
                                0.2222899         0.39195739

nuclear repulsion = 1496.35399621238
number of shells = 80
number of NR pGTOs = 372
number of NR cGTOs = 124
basis = sto3g
ecp = {}
CPU time:     20343.99
atom C rad-grids = 99, ang-grids = [ 50  50  50  50  50  50  50  50  50  50  50  50  50  50  50  50  50  50
  50  50  50  50  50  50  50  50  50  50  50  50  50  86  86  86  86  86
  86  86  86  86  86  86  86 434 434 434 434 434 434 434 434 434 590 590
 590 590 590 590 590 590 590 590 590 590 590 590 590 590 590 590 590 590
 590 590 590 590 590 590 590 434 434 434 434 434 434 434 434 434 434 434
 434 434 434 434 434 434 434 434 434]
atom H rad-grids = 99, ang-grids = [ 50  50  50  50  50  50  50  50  50  50  50  50  50  50  50  50  50  50
  50  50  50  50  50  50  50  50  50  50  86  86  86  86  86  86  86 434
 434 434 434 434 434 434 434 590 590 590 590 590 590 590 590 590 590 590
 590 590 590 590 590 590 590 590 590 590 590 590 590 590 590 434 434 434
 434 434 434 434 434 434 434 434 434 434 434 434 434 434 434 434 434 434
 434 434 434 434 434 434 434 434 434]
tot_boxes 5440, boxes in each direction [ 8 30 15]
Padding 0 grids
tot grids = 1157832


******** <class 'pyscf.dft.rks.RKS'> ********
method = RKS
initial guess = minao
damping factor = 0
level_shift factor = 0
DIIS = <class 'pyscf.scf.diis.CDIIS'>
diis_start_cycle = 1
diis_space = 8
SCF conv_tol = 1e-10
SCF conv_tol_grad = None
SCF max_cycles = 50
direct_scf = True
direct_scf_tol = 1e-13
chkfile to save SCF result = /home/saade/mlelec/tutorials/tmpidztpbe2
max_memory 4000 MB (current use 637 MB)
XC library pyscf.dft.libxc version 6.1.0
    S. Lehtola, C. Steigemann, M. J.T. Oliveira, and M. A.L. Marques.,  SoftwareX 7, 1–5 (2018)
XC functionals = b3lypg
    P. J. Stephens, F. J. Devlin, C. F. Chabalowski, and M. J. Frisch.,  J. Phys. Chem. 98, 11623 (1994)
radial grids: 
    Treutler-Ahlrichs [JCP 102, 346 (1995); DOI:10.1063/1.469408] (M4) radial grids
    
becke partition: Becke, JCP 88, 2547 (1988); DOI:10.1063/1.454033
pruning grids: <function nwchem_prune at 0x7f9db5616ca0>
grids dens level: 3
symmetrized grids: False
atomic radii adjust function: <function treutler_atomic_radii_adjust at 0x7f9db5617380>
User specified grid scheme (99, 590)
small_rho_cutoff = 1e-07
Set gradient conv threshold to 1e-05
Initial guess from minao.
nelec by numeric integration = 145.26892222794794
    CPU time for vxc     37.19 sec, wall time     15.63 sec
E1 = -4092.590972301516  Ecoul = 1880.9214391433381  Exc = -126.0648788705835
init E= -841.380415816386
cond(S) = 23.552426037750244
    CPU time for initialize scf     46.99 sec, wall time     17.97 sec
  HOMO = -0.209199251960781  LUMO = -0.148265913384643
  mo_energy =
[-10.14537895 -10.14222022 -10.13603787 -10.13047116 -10.12518299
 -10.12040616 -10.11850023 -10.10970848 -10.10934912 -10.10886811
 -10.106075   -10.10575739 -10.10161156 -10.10072107 -10.09957437
 -10.0942274  -10.09008674 -10.08183182 -10.0805592  -10.07306243
 -10.06671035 -10.06563647  -1.10233947  -1.07157592  -1.05770223
  -0.98823336  -0.97054527  -0.94170489  -0.91717504  -0.89708341
  -0.8578777   -0.8365597   -0.79401183  -0.76889577  -0.73377633
  -0.71222253  -0.68254781  -0.68182276  -0.66186337  -0.64871183
  -0.61406526  -0.58611467  -0.56942804  -0.55876776  -0.53785346
  -0.5291255   -0.52137034  -0.50453421  -0.49647474  -0.48602536
  -0.48231106  -0.47739985  -0.46405739  -0.45530441  -0.4499131
  -0.44336469  -0.43641782  -0.41840692  -0.4003076   -0.38705667
  -0.37122401  -0.36062593  -0.34924461  -0.34076851  -0.3343097
  -0.33001053  -0.31887224  -0.30992605  -0.30191987  -0.29057974
  -0.26632943  -0.23875918  -0.20919925  -0.14826591  -0.11164225
  -0.06855981  -0.04746157  -0.03336509  -0.01810607   0.01603154
   0.04203304   0.06604166   0.081007     0.10887462   0.11625808
   0.13147099   0.14740933   0.16103684   0.17168662   0.17569982
   0.18447982   0.20168817   0.21701849   0.22926826   0.24507985
   0.24712207   0.26657331   0.27538927   0.2910515    0.30859721
   0.37153546   0.38545986   0.3933366    0.4011501    0.41570544
   0.42460604   0.4343744    0.47253711   0.48380698   0.49156504
   0.5069774    0.54564788   0.57377585   0.59064434   0.60541038
   0.61213395   0.64762589   0.68649995   0.69671084   0.73308276
   0.75562667   0.78126129   0.79462125   0.89237406]
nelec by numeric integration = 146.0000090794117
    CPU time for vxc     38.96 sec, wall time     15.98 sec
E1 = -4106.968855083619  Ecoul = 1899.8019103045006  Exc = -124.71077890201555
cycle= 1 E= -835.523727468758  delta_E= 5.86  |g|= 0.313  |ddm|= 9.28
    CPU time for cycle= 1     39.37 sec, wall time     16.04 sec
  HOMO = -0.0989387799530533  LUMO = -0.00273987102135185
  mo_energy =
[-1.00665571e+01 -1.00572463e+01 -1.00374545e+01 -1.00347786e+01
 -1.00326714e+01 -1.00303494e+01 -1.00221357e+01 -1.00132249e+01
 -1.00070419e+01 -1.00033164e+01 -1.00026481e+01 -9.99234198e+00
 -9.98892143e+00 -9.98147309e+00 -9.96108232e+00 -9.95435541e+00
 -9.95186421e+00 -9.94422994e+00 -9.94115096e+00 -9.93911425e+00
 -9.91842434e+00 -9.91736922e+00 -8.36731467e-01 -8.32754957e-01
 -8.04298367e-01 -7.61422663e-01 -7.50826142e-01 -7.34371499e-01
 -7.30273910e-01 -7.09452869e-01 -6.76427502e-01 -6.63794302e-01
 -6.33005666e-01 -6.19085796e-01 -5.91825256e-01 -5.73486750e-01
 -5.57356097e-01 -5.53305928e-01 -5.21208626e-01 -5.05706430e-01
 -4.92930426e-01 -4.67073251e-01 -4.63056673e-01 -4.41618041e-01
 -4.38470560e-01 -4.21619547e-01 -4.06637485e-01 -3.96094403e-01
 -3.91391399e-01 -3.84955026e-01 -3.75573487e-01 -3.72314719e-01
 -3.66834362e-01 -3.48828933e-01 -3.44755283e-01 -3.39156164e-01
 -3.26288378e-01 -3.10995341e-01 -3.05624732e-01 -2.80967020e-01
 -2.62103095e-01 -2.58138836e-01 -2.49614475e-01 -2.47470348e-01
 -2.43105005e-01 -2.31813540e-01 -2.20112557e-01 -2.11944545e-01
 -1.99633071e-01 -1.70144376e-01 -1.56915723e-01 -1.31194462e-01
 -9.89387800e-02 -2.73987102e-03  3.05433755e-02  7.25915190e-02
  8.86797799e-02  1.03308426e-01  1.25165851e-01  1.71723400e-01
  1.92121358e-01  2.27030881e-01  2.32859794e-01  2.52300180e-01
  2.65704562e-01  2.85516174e-01  2.90464289e-01  2.95980487e-01
  3.06016592e-01  3.17079636e-01  3.32321335e-01  3.38834901e-01
  3.53808716e-01  3.70464672e-01  3.74637904e-01  3.87695357e-01
  4.27758852e-01  4.28739456e-01  4.38057711e-01  4.62800516e-01
  4.96666067e-01  5.27588848e-01  5.30834025e-01  5.42931191e-01
  5.58576744e-01  5.73934995e-01  5.87065241e-01  6.14113793e-01
  6.23343302e-01  6.46886242e-01  6.61906838e-01  6.99372284e-01
  7.17953749e-01  7.32429020e-01  7.54516935e-01  7.66999305e-01
  7.79257919e-01  8.56184438e-01  8.75306809e-01  9.05742110e-01
  9.40999151e-01  9.52494374e-01  9.56570277e-01  1.11024812e+00]
nelec by numeric integration = 146.000009046576
    CPU time for vxc     38.30 sec, wall time     15.79 sec
E1 = -4102.496886841261  Ecoul = 1895.2166607475779  Exc = -124.5687210702715
cycle= 2 E= -835.494950951579  delta_E= 0.0288  |g|= 0.434  |ddm|= 1.19
    CPU time for cycle= 2     38.76 sec, wall time     15.86 sec
  HOMO = -0.108923397402195  LUMO = -0.012682507849424
  mo_energy =
[-10.04048858 -10.03969364 -10.03227261 -10.0264638  -10.02592207
 -10.01965648 -10.01902325 -10.01567088 -10.01331071 -10.0121099
 -10.01038275 -10.00871355 -10.00867521 -10.00740647 -10.00594308
 -10.00524484  -9.99734359  -9.9816456   -9.98142443  -9.97654021
  -9.97632835  -9.97603405  -0.85382231  -0.84394589  -0.83203743
  -0.77509105  -0.76477721  -0.74909821  -0.73689775  -0.71432456
  -0.69201481  -0.67582689  -0.6443316   -0.61971893  -0.60235308
  -0.58185996  -0.56058505  -0.55771268  -0.54093898  -0.52019872
  -0.50135105  -0.47985773  -0.470834    -0.4551838   -0.44054716
  -0.43352997  -0.41281296  -0.40575099  -0.40348493  -0.39491661
  -0.38712747  -0.37097669  -0.3691456   -0.36776455  -0.36342231
  -0.35036328  -0.33320976  -0.32654322  -0.31268138  -0.28254774
  -0.26995069  -0.26442638  -0.26200594  -0.25716025  -0.24883368
  -0.2481652   -0.22653204  -0.22006687  -0.20507781  -0.19483762
  -0.16869306  -0.14245081  -0.1089234   -0.01268251   0.02402425
   0.06504363   0.08671146   0.10441803   0.12126433   0.15531207
   0.18578937   0.20280831   0.22184098   0.24386051   0.25564224
   0.26918251   0.28595077   0.30097074   0.3031679    0.30878315
   0.32540552   0.33757732   0.35686296   0.37716397   0.37876736
   0.38375444   0.41352298   0.41988694   0.43491201   0.44839208
   0.50292093   0.52185255   0.53061316   0.54203397   0.54920218
   0.56199842   0.57467603   0.60505334   0.62261636   0.62461743
   0.64921815   0.68128162   0.70701253   0.72245512   0.73642371
   0.7516721    0.7650144    0.8282468    0.84482411   0.87352402
   0.90206817   0.9190759    0.9323572    1.07582061]
nelec by numeric integration = 146.000008994645
    CPU time for vxc     38.39 sec, wall time     15.80 sec
E1 = -4103.5334092888515  Ecoul = 1896.2244462495937  Exc = -124.59561618052183
cycle= 3 E= -835.550583007404  delta_E= -0.0556  |g|= 0.196  |ddm|= 0.929
    CPU time for cycle= 3     38.95 sec, wall time     15.89 sec
  HOMO = -0.116914762389683  LUMO = -0.0207673333995643
  mo_energy =
[-10.04156646 -10.03973917 -10.033898   -10.03154472 -10.02980953
 -10.02709357 -10.02623482 -10.02506527 -10.02029351 -10.01955667
 -10.01747887 -10.01727589 -10.01700013 -10.01655377 -10.01484321
 -10.0114612  -10.00935632 -10.00903689 -10.0079225  -10.00035512
  -9.99607724  -9.99446496  -0.86016752  -0.84756036  -0.83799586
  -0.78402222  -0.77579385  -0.7580815   -0.73837684  -0.72486948
  -0.69623059  -0.67832309  -0.64610982  -0.63136394  -0.60627646
  -0.58386038  -0.56544783  -0.56341002  -0.54351951  -0.52975892
  -0.51033998  -0.48224882  -0.47522314  -0.46012468  -0.44356371
  -0.43835011  -0.42376387  -0.41337027  -0.40648873  -0.39799598
  -0.39399049  -0.37734326  -0.37421117  -0.37291073  -0.36931565
  -0.35459141  -0.34103978  -0.33841292  -0.3181777   -0.28528426
  -0.28313391  -0.27032496  -0.26771782  -0.2580938   -0.25796084
  -0.24979121  -0.23476079  -0.22432629  -0.21473186  -0.20757246
  -0.17437327  -0.1473641   -0.11691476  -0.02076733   0.01681958
   0.06061548   0.0821891    0.09534388   0.11216945   0.15071556
   0.18465632   0.19257994   0.21771639   0.23764883   0.25121569
   0.26475698   0.28042437   0.28976038   0.29903141   0.30226737
   0.31730628   0.33129484   0.3470682    0.36326392   0.37138699
   0.3754226    0.40428426   0.41549145   0.42766256   0.43920103
   0.50090899   0.51984103   0.52521828   0.53058135   0.54554343
   0.55616445   0.5683418    0.60272606   0.61507178   0.61874333
   0.63928471   0.6779812    0.70249514   0.71581129   0.7322276
   0.74544811   0.76619338   0.82404144   0.84121768   0.8714524
   0.90074022   0.91636073   0.93044914   1.048304  ]
nelec by numeric integration = 146.00000905494113
    CPU time for vxc     38.00 sec, wall time     15.76 sec
E1 = -4104.194269181407  Ecoul = 1896.8870611061686  Exc = -124.60977414459276
cycle= 4 E= -835.562986007456  delta_E= -0.0124  |g|= 0.0769  |ddm|= 0.41
    CPU time for cycle= 4     38.54 sec, wall time     15.84 sec
  HOMO = -0.11765078969975  LUMO = -0.022001598911298
  mo_energy =
[-10.04600081 -10.04321166 -10.03608701 -10.03573987 -10.0338395
 -10.03066647 -10.0254846  -10.02232417 -10.02099821 -10.02045176
 -10.01940705 -10.01762501 -10.01725153 -10.01537226 -10.0129637
 -10.00853581 -10.00799122 -10.00790799 -10.00543841 -10.00466933
 -10.0045264  -10.00158192  -0.8595248   -0.85013489  -0.8382014
  -0.78154595  -0.7753087   -0.75896679  -0.7418181   -0.72341637
  -0.69740964  -0.68171594  -0.64751577  -0.63069273  -0.60821367
  -0.58596683  -0.56794028  -0.56383523  -0.54446128  -0.52796048
  -0.50915205  -0.48256608  -0.47612988  -0.46007891  -0.44781738
  -0.43909445  -0.42118266  -0.41414455  -0.40782892  -0.39902172
  -0.39315528  -0.37719058  -0.37540672  -0.3730723   -0.3692277
  -0.35675061  -0.33983531  -0.33679194  -0.32042301  -0.29043779
  -0.28052332  -0.27134354  -0.26988     -0.25990764  -0.25814503
  -0.25156151  -0.23589543  -0.22645491  -0.21490194  -0.20456209
  -0.17650946  -0.14995844  -0.11765079  -0.0220016    0.01539807
   0.058545     0.07832644   0.09433756   0.11113458   0.14979666
   0.18539542   0.19367138   0.21672484   0.23883697   0.25108667
   0.26447008   0.27959861   0.29117751   0.29829052   0.30191422
   0.31837087   0.3321466    0.34377661   0.36540683   0.36810013
   0.37520194   0.40608658   0.41335924   0.42578556   0.43933769
   0.4964201    0.51872464   0.52097037   0.53169653   0.54408006
   0.55593389   0.56779209   0.6009295    0.61525499   0.61691121
   0.63958442   0.67743548   0.69996252   0.71650133   0.72943658
   0.74536176   0.76542877   0.82313909   0.84031291   0.87024864
   0.90111908   0.91502109   0.92713144   1.05553173]
nelec by numeric integration = 146.0000090517387
    CPU time for vxc     38.51 sec, wall time     15.83 sec
E1 = -4104.281438754035  Ecoul = 1896.973922429457  Exc = -124.61129100134225
cycle= 5 E= -835.564811113545  delta_E= -0.00183  |g|= 0.031  |ddm|= 0.152
    CPU time for cycle= 5     39.06 sec, wall time     15.91 sec
  HOMO = -0.116872631562132  LUMO = -0.0205633150931681
  mo_energy =
[-10.0441883  -10.04403838 -10.03623576 -10.03372263 -10.03171806
 -10.03048743 -10.02182521 -10.02124567 -10.02086744 -10.02023719
 -10.01915437 -10.01736532 -10.0155581  -10.01494676 -10.00892784
 -10.0078558  -10.00695321 -10.00578454 -10.0045473  -10.00386387
 -10.00330158 -10.00092901  -0.85870286  -0.84890286  -0.83723257
  -0.78070274  -0.77414791  -0.75822931  -0.74111778  -0.72315893
  -0.69686705  -0.67978466  -0.64695019  -0.63005491  -0.60694721
  -0.58497441  -0.56659454  -0.56376881  -0.54354063  -0.52708065
  -0.50869738  -0.48213339  -0.47545595  -0.45968616  -0.44554441
  -0.43852651  -0.42004249  -0.41361761  -0.40762956  -0.39836166
  -0.39294959  -0.3768349   -0.37478707  -0.37265439  -0.36902358
  -0.35576514  -0.33917322  -0.3363853   -0.31926873  -0.28835091
  -0.27935077  -0.27059704  -0.26901359  -0.25962562  -0.25752753
  -0.25167752  -0.23531988  -0.22614141  -0.21464838  -0.20386464
  -0.17573166  -0.14876009  -0.11687263  -0.02056332   0.01632754
   0.05923809   0.07933377   0.09501272   0.11177236   0.15007146
   0.18595984   0.19438103   0.21867855   0.23944044   0.25132822
   0.26492647   0.28057409   0.29201725   0.29902896   0.30222709
   0.31891396   0.33251528   0.34514145   0.36622326   0.3693645
   0.37557418   0.40647479   0.41398307   0.42707424   0.44014506
   0.49859785   0.51921697   0.52194681   0.53212582   0.54480507
   0.55627902   0.56851917   0.60170683   0.61676157   0.61732208
   0.64061492   0.67778489   0.70164979   0.71660735   0.73132607
   0.74557608   0.76414527   0.823856     0.84111307   0.8706328
   0.90143913   0.91571075   0.92940481   1.05783943]
nelec by numeric integration = 146.00000904873278
    CPU time for vxc     37.98 sec, wall time     15.75 sec
E1 = -4104.194560232387  Ecoul = 1896.885237202866  Exc = -124.60977623925035
cycle= 6 E= -835.565103056395  delta_E= -0.000292  |g|= 0.0122  |ddm|= 0.0579
    CPU time for cycle= 6     38.46 sec, wall time     15.82 sec
  HOMO = -0.116820392875146  LUMO = -0.0204291906563812
  mo_energy =
[-10.04422076 -10.04304182 -10.03551415 -10.03346927 -10.02987968
 -10.02956252 -10.02254673 -10.02069161 -10.01959463 -10.01896915
 -10.01748747 -10.01696343 -10.0155847  -10.01399071 -10.00841458
 -10.00763035 -10.00667957 -10.00612684 -10.0053355  -10.00342552
 -10.00237684 -10.00165297  -0.85842626  -0.84849055  -0.83691999
  -0.78047435  -0.77402844  -0.75761187  -0.74050043  -0.72288904
  -0.69635601  -0.67982694  -0.64657757  -0.62977471  -0.60678772
  -0.58468569  -0.56617127  -0.56334163  -0.54343322  -0.52704721
  -0.5084541   -0.48185784  -0.47508836  -0.45938915  -0.44564697
  -0.43812073  -0.42025943  -0.41309402  -0.40700127  -0.39810572
  -0.39284891  -0.37650683  -0.37430817  -0.37239938  -0.36866665
  -0.35546236  -0.33901875  -0.33642364  -0.31903706  -0.28818194
  -0.27940736  -0.27030176  -0.26863938  -0.25936693  -0.25726493
  -0.25117313  -0.23479676  -0.22553514  -0.21426428  -0.20401765
  -0.17523276  -0.14863056  -0.11682039  -0.02042919   0.01665728
   0.05974258   0.07998928   0.09546656   0.11235859   0.15061324
   0.18594437   0.19430194   0.21830526   0.23915085   0.25158708
   0.26509689   0.28079531   0.29190092   0.29935205   0.30243652
   0.31908591   0.33273182   0.34592836   0.3664054    0.36997799
   0.37590646   0.40667035   0.41454738   0.42746001   0.44037514
   0.49869835   0.51969326   0.52276888   0.53246745   0.54519191
   0.55677299   0.5689109    0.60222149   0.61701167   0.61753683
   0.64074357   0.6782764    0.70177627   0.71712877   0.73118743
   0.74606393   0.76515248   0.82417002   0.84149719   0.87116692
   0.9018105    0.91620584   0.92917828   1.05733449]
nelec by numeric integration = 146.000009049368
    CPU time for vxc     37.44 sec, wall time     15.54 sec
E1 = -4104.1653908185335  Ecoul = 1896.8548185045304  Exc = -124.60857856483555
cycle= 7 E= -835.565154666464  delta_E= -5.16e-05  |g|= 0.00393  |ddm|= 0.0224
    CPU time for cycle= 7     37.84 sec, wall time     15.60 sec
  HOMO = -0.116723235442074  LUMO = -0.0203017509085123
  mo_energy =
[-10.04411102 -10.04294286 -10.03538001 -10.03324957 -10.03017903
 -10.02954304 -10.02273873 -10.02079506 -10.0196767  -10.01904502
 -10.01764249 -10.01701925 -10.01497004 -10.01437477 -10.0084928
 -10.00702436 -10.00662281 -10.00544185 -10.0053329  -10.00286499
 -10.00264118 -10.00201376  -0.85840695  -0.84850099  -0.83692978
  -0.78052602  -0.77403303  -0.75769029  -0.74039852  -0.72276553
  -0.69634307  -0.67973043  -0.64653556  -0.62969277  -0.60674491
  -0.58464416  -0.5662059   -0.56331588  -0.54338243  -0.52705657
  -0.50843318  -0.48184389  -0.47512127  -0.45934883  -0.44557014
  -0.43813352  -0.42029285  -0.41308968  -0.40695473  -0.39807587
  -0.39282634  -0.37644402  -0.37432768  -0.37237786  -0.36863689
  -0.35544797  -0.33899413  -0.33636513  -0.31903836  -0.2881039
  -0.27941595  -0.27026936  -0.26862771  -0.25937468  -0.25723388
  -0.25116318  -0.2348398   -0.22543864  -0.21417801  -0.20397431
  -0.17523094  -0.14853897  -0.11672324  -0.02030175   0.01673615
   0.05977074   0.0800624    0.0955336    0.11232799   0.15059941
   0.18598286   0.19431782   0.21845635   0.23930554   0.25157537
   0.26509731   0.28081995   0.29197903   0.29936438   0.30253496
   0.31911553   0.33274189   0.34586228   0.36649193   0.36990225
   0.3759401    0.40669776   0.41461886   0.42746887   0.4403333
   0.49871579   0.51966346   0.52282346   0.53257399   0.54523833
   0.55678171   0.56890152   0.60218307   0.61706546   0.61752255
   0.64079019   0.67826153   0.70182408   0.71708499   0.73128465
   0.74613072   0.76529432   0.82424524   0.84150866   0.87116209
   0.90181256   0.91618208   0.92920545   1.05720801]
nelec by numeric integration = 146.00000904885525
    CPU time for vxc     39.22 sec, wall time     16.08 sec
E1 = -4104.167195687742  Ecoul = 1896.856617062431  Exc = -124.60857719185873
cycle= 8 E= -835.565159604794  delta_E= -4.94e-06  |g|= 0.0011  |ddm|= 0.00647
    CPU time for cycle= 8     39.46 sec, wall time     16.12 sec
  HOMO = -0.116738673210898  LUMO = -0.020289734859881
  mo_energy =
[-10.04401597 -10.0429182  -10.03530081 -10.03319639 -10.0302948
 -10.02965968 -10.02279142 -10.0207251  -10.01969388 -10.01881019
 -10.01774712 -10.01709762 -10.01499397 -10.01420222 -10.0084174
 -10.00718771 -10.00658272 -10.00542002 -10.00534045 -10.00313074
 -10.0025845  -10.00201002  -0.85840277  -0.84851602  -0.83693529
  -0.78050272  -0.77402296  -0.75766329  -0.74043975  -0.72279163
  -0.69633681  -0.67973163  -0.64653888  -0.62970756  -0.60672763
  -0.58465449  -0.56619764  -0.56332494  -0.54338741  -0.52705277
  -0.50843313  -0.48183919  -0.4751224   -0.45934632  -0.44554302
  -0.4381347   -0.4202857   -0.41307236  -0.40698936  -0.39808798
  -0.3928152   -0.37646827  -0.37434294  -0.37237012  -0.36864807
  -0.3554561   -0.33899153  -0.33635214  -0.31902487  -0.28808866
  -0.27940571  -0.27026141  -0.26861902  -0.25934893  -0.25723533
  -0.25117249  -0.23482152  -0.22547797  -0.21420866  -0.20395895
  -0.17522329  -0.14853106  -0.11673867  -0.02028973   0.01675508
   0.05976845   0.08004303   0.09552152   0.11232764   0.15062076
   0.18598537   0.19432136   0.21847189   0.23932463   0.25159435
   0.26511954   0.28081577   0.29199231   0.29934415   0.30248715
   0.31912064   0.33275039   0.34588046   0.3664828    0.36991175
   0.37592954   0.40670637   0.4146262    0.42747727   0.44034887
   0.49873277   0.51967736   0.52279951   0.53252382   0.54522471
   0.5567867    0.56890893   0.60218566   0.61705748   0.61752822
   0.64079544   0.67827003   0.70184333   0.71712696   0.7313003
   0.74611377   0.76519853   0.82424597   0.84151987   0.87117142
   0.90182515   0.91612523   0.92919903   1.05722621]
nelec by numeric integration = 146.00000904888765
    CPU time for vxc     38.02 sec, wall time     15.76 sec
E1 = -4104.1663638797545  Ecoul = 1896.8558284417572  Exc = -124.60862072979563
cycle= 9 E= -835.565159955417  delta_E= -3.51e-07  |g|= 0.000513  |ddm|= 0.00209
    CPU time for cycle= 9     38.37 sec, wall time     15.82 sec
  HOMO = -0.116760096752208  LUMO = -0.0203020141185365
  mo_energy =
[-10.04398719 -10.04296672 -10.03537207 -10.03325375 -10.03024986
 -10.02963912 -10.02273609 -10.02077724 -10.01969877 -10.01891388
 -10.01765739 -10.01713369 -10.01499546 -10.01426232 -10.00849919
 -10.0071503  -10.00662472 -10.00542329 -10.00539128 -10.00310751
 -10.00261992 -10.00197507  -0.85842674  -0.84850703  -0.83694907
  -0.78052755  -0.77403195  -0.75768334  -0.74043675  -0.72279811
  -0.69636111  -0.67973664  -0.64656167  -0.62971034  -0.60675386
  -0.58466399  -0.56620072  -0.56334005  -0.54340028  -0.52706423
  -0.5084478   -0.48186155  -0.47513044  -0.45936591  -0.44555906
  -0.43814956  -0.42028711  -0.41310208  -0.40698967  -0.39809254
  -0.39281455  -0.3764746   -0.3743413   -0.3723967   -0.36866146
  -0.35544819  -0.33899622  -0.33635421  -0.31902128  -0.28810524
  -0.27941967  -0.27027204  -0.26862771  -0.25936254  -0.25724377
  -0.25115968  -0.23483177  -0.22547428  -0.21421424  -0.20397094
  -0.17523663  -0.14855031  -0.1167601   -0.02030201   0.01673354
   0.05976216   0.08003952   0.09551235   0.1123242    0.15059534
   0.18600219   0.19433127   0.21845237   0.239324     0.25158167
   0.26510938   0.28082555   0.29199179   0.29936054   0.30249086
   0.31910283   0.3327469    0.34586759   0.36648109   0.36990713
   0.37592239   0.40668956   0.41460683   0.42746924   0.44034301
   0.49871611   0.51964633   0.52279727   0.53252847   0.54521549
   0.55676213   0.56888956   0.60216784   0.61704797   0.61750791
   0.64078139   0.67823787   0.70181965   0.71708358   0.73127231
   0.74609111   0.76520982   0.82421328   0.84148546   0.87114073
   0.90178417   0.91616588   0.92922371   1.057239  ]
nelec by numeric integration = 146.00000904891007
    CPU time for vxc     38.30 sec, wall time     15.82 sec
E1 = -4104.16777015859  Ecoul = 1896.8572542108393  Exc = -124.60864031394595
cycle= 10 E= -835.565160049322  delta_E= -9.39e-08  |g|= 0.000154  |ddm|= 0.000894
    CPU time for cycle= 10     38.79 sec, wall time     15.90 sec
  HOMO = -0.116760353176594  LUMO = -0.0203031115565882
  mo_energy =
[-10.04406014 -10.04296857 -10.03536211 -10.03324644 -10.03025535
 -10.02961292 -10.02277273 -10.020779   -10.01970565 -10.01890666
 -10.01769887 -10.01710826 -10.01499148 -10.01424933 -10.00850556
 -10.00713793 -10.00661962 -10.00543333 -10.00540185 -10.00311974
 -10.00262586 -10.00198018  -0.85842507  -0.84852611  -0.83695187
  -0.78052447  -0.77403325  -0.75768527  -0.74044881  -0.7227929
  -0.69636054  -0.67974795  -0.64656096  -0.62970918  -0.60675445
  -0.58466988  -0.56620947  -0.56333731  -0.54340536  -0.52706202
  -0.50844401  -0.48186084  -0.47513481  -0.45936425  -0.4455692
  -0.43815116  -0.42028353  -0.41309626  -0.40699962  -0.39809914
  -0.39281337  -0.3764712   -0.37434566  -0.37239442  -0.36866015
  -0.3554634   -0.3389993   -0.33635295  -0.31903364  -0.28811022
  -0.2794163   -0.27027428  -0.26863204  -0.25936505  -0.25724239
  -0.25117035  -0.2348363   -0.22548233  -0.21421212  -0.20396913
  -0.1752405   -0.14855431  -0.11676035  -0.02030311   0.01673287
   0.05975444   0.08003264   0.09551553   0.11232146   0.15059525
   0.18599096   0.194325     0.21845032   0.23932428   0.25157997
   0.26510502   0.28081022   0.29198908   0.2993494    0.30249421
   0.31910583   0.33274821   0.34586444   0.36647975   0.36990327
   0.37592558   0.40669147   0.41460132   0.4274629    0.44034175
   0.49871004   0.51965022   0.52278647   0.53253416   0.54521038
   0.55676399   0.56888978   0.60216646   0.61704788   0.61750774
   0.64078183   0.67824142   0.70181679   0.71709035   0.73127177
   0.7460975    0.76520074   0.82421894   0.8414897    0.87114196
   0.90178841   0.91613694   0.92918957   1.05723443]
nelec by numeric integration = 146.00000904892437
    CPU time for vxc     38.57 sec, wall time     15.89 sec
E1 = -4104.167912270059  Ecoul = 1896.8574092035562  Exc = -124.60865320253961
cycle= 11 E= -835.565160056667  delta_E= -7.35e-09  |g|= 7.47e-05  |ddm|= 0.00031
    CPU time for cycle= 11     38.84 sec, wall time     15.94 sec
  HOMO = -0.11675853453466  LUMO = -0.0202988847163393
  mo_energy =
[-10.04403753 -10.0429638  -10.03536028 -10.0332533  -10.03025437
 -10.02961929 -10.02275809 -10.020774   -10.01969806 -10.01890241
 -10.01768985 -10.01711606 -10.01497424 -10.01425143 -10.0085037
 -10.0071406  -10.00662026 -10.00542835 -10.00539728 -10.00311208
 -10.00261585 -10.00197707  -0.85842374  -0.84851891  -0.83694946
  -0.78052374  -0.77402973  -0.75768181  -0.74044406  -0.7227912
  -0.69635931  -0.67974345  -0.64655948  -0.62970531  -0.60675254
  -0.58466733  -0.56620518  -0.56333573  -0.54340293  -0.52706059
  -0.50844174  -0.48185966  -0.47513174  -0.45936224  -0.44556473
  -0.43814831  -0.42028329  -0.41309631  -0.40699546  -0.39809617
  -0.39281114  -0.37646918  -0.37434266  -0.37239361  -0.36865926
  -0.3554576   -0.33899635  -0.33635035  -0.31902947  -0.28810863
  -0.2794152   -0.27027133  -0.26862944  -0.25936377  -0.25724024
  -0.25116801  -0.23483355  -0.22547891  -0.21421041  -0.20396755
  -0.1752384   -0.14855138  -0.11675853  -0.02029888   0.01673562
   0.05975785   0.08003636   0.09551733   0.11232509   0.15059761
   0.18599217   0.19432665   0.21845138   0.23932623   0.25158165
   0.2651071    0.28081573   0.29199255   0.2993526    0.30249527
   0.3191071    0.33275098   0.34586748   0.36648465   0.36990585
   0.37592811   0.40669277   0.41460412   0.42746608   0.44034317
   0.49871347   0.51965108   0.52279136   0.53253595   0.54521362
   0.55676601   0.56889262   0.60216988   0.61705089   0.61750925
   0.64078495   0.6782434    0.70181911   0.71709135   0.73127382
   0.74609833   0.76520415   0.82421881   0.84148994   0.87114378
   0.90178837   0.9161457    0.92920062   1.05723881]
nelec by numeric integration = 146.00000904891505
    CPU time for vxc     38.00 sec, wall time     15.71 sec
E1 = -4104.1676924040585  Ecoul = 1896.8571808788438  Exc = -124.6086447458895
cycle= 12 E= -835.565160058728  delta_E= -2.06e-09  |g|= 2.54e-05  |ddm|= 0.000147
    CPU time for cycle= 12     38.43 sec, wall time     15.78 sec
  HOMO = -0.116758007790434  LUMO = -0.0202976776320124
  mo_energy =
[-10.04403302 -10.04296311 -10.03535876 -10.0332463  -10.03025381
 -10.02961959 -10.0227568  -10.02077689 -10.01969977 -10.01889863
 -10.01768743 -10.0171122  -10.01497985 -10.01424857 -10.00849893
 -10.0071331  -10.00661605 -10.00542521 -10.00539449 -10.00311252
 -10.0026224  -10.00197125  -0.85842181  -0.84851763  -0.83694758
  -0.78052136  -0.77402877  -0.75768092  -0.740443    -0.72279025
  -0.69635767  -0.67974194  -0.64655859  -0.62970528  -0.60675095
  -0.58466589  -0.56620388  -0.56333577  -0.54340141  -0.5270592
  -0.50844132  -0.48185848  -0.47513082  -0.45936146  -0.44556308
  -0.43814776  -0.42028156  -0.4130942   -0.40699427  -0.39809485
  -0.39281181  -0.37646882  -0.37434168  -0.37239223  -0.36865787
  -0.35545636  -0.33899533  -0.33635001  -0.31902789  -0.28810655
  -0.27941265  -0.27027094  -0.26862848  -0.25936432  -0.2572394
  -0.25116765  -0.2348324   -0.22547793  -0.21420936  -0.20396566
  -0.17523648  -0.14855004  -0.11675801  -0.02029768   0.01673686
   0.05975955   0.08003745   0.09551837   0.11232557   0.15059828
   0.18599369   0.19432845   0.21845374   0.23932637   0.25158192
   0.2651076    0.28081713   0.29199352   0.29935376   0.30249644
   0.31910847   0.33275026   0.34586888   0.36648531   0.369907
   0.37592804   0.40669415   0.41460631   0.42746763   0.44034485
   0.4987148    0.51965174   0.52279274   0.53253698   0.54521482
   0.55676679   0.56889322   0.60216972   0.61705133   0.61751077
   0.64078575   0.67824369   0.70182101   0.71709277   0.73127541
   0.74609891   0.76520446   0.82422058   0.84149168   0.87114438
   0.90179084   0.91614734   0.92920265   1.05724251]
nelec by numeric integration = 146.00000904891454
    CPU time for vxc     38.25 sec, wall time     15.76 sec
E1 = -4104.16754244718  Ecoul = 1896.8570291848307  Exc = -124.60864300885589
cycle= 13 E= -835.565160058829  delta_E= -1.01e-10  |g|= 1.81e-05  |ddm|= 6.08e-05
    CPU time for cycle= 13     38.82 sec, wall time     15.85 sec
  HOMO = -0.116758818190904  LUMO = -0.0202984744604901
  mo_energy =
[-10.04403479 -10.04296383 -10.03536049 -10.03324826 -10.03025341
 -10.02961922 -10.02275958 -10.02077661 -10.01969891 -10.01890122
 -10.017688   -10.01711528 -10.01497917 -10.0142493  -10.00850343
 -10.00713637 -10.00661881 -10.00542663 -10.00539559 -10.00311259
 -10.00261956 -10.00197434  -0.85842322  -0.84851854  -0.83694885
  -0.78052309  -0.77402954  -0.75768171  -0.74044344  -0.72279113
  -0.69635874  -0.67974273  -0.64655944  -0.6297056   -0.60675189
  -0.58466677  -0.56620465  -0.56333616  -0.54340252  -0.52706034
  -0.50844196  -0.48185952  -0.47513159  -0.45936234  -0.44556386
  -0.43814832  -0.42028273  -0.4130955   -0.40699503  -0.39809578
  -0.39281168  -0.37646929  -0.37434234  -0.3723935   -0.36865892
  -0.35545716  -0.33899616  -0.33635052  -0.31902861  -0.28810726
  -0.27941437  -0.2702713   -0.26862901  -0.25936412  -0.25724009
  -0.2511675   -0.23483308  -0.22547834  -0.21421017  -0.20396707
  -0.17523753  -0.14855083  -0.11675882  -0.02029847   0.01673596
   0.05975865   0.080037     0.09551767   0.11232513   0.15059753
   0.1859933    0.1943276    0.2184526    0.23932625   0.25158154
   0.26510718   0.28081629   0.29199276   0.29935326   0.30249565
   0.31910735   0.33275029   0.34586817   0.36648452   0.36990635
   0.37592773   0.40669295   0.41460519   0.42746684   0.44034388
   0.49871403   0.5196509    0.52279219   0.5325363    0.54521391
   0.55676588   0.5688925    0.60216942   0.61705084   0.6175094
   0.64078485   0.67824295   0.70181996   0.71709156   0.73127444
   0.74609816   0.76520439   0.82421931   0.8414904    0.87114356
   0.90178876   0.91614631   0.92920125   1.05724035]
nelec by numeric integration = 146.0000090489165
    CPU time for vxc     38.47 sec, wall time     15.77 sec
E1 = -4104.167649611534  Ecoul = 1896.8571383536344  Exc = -124.60864501342616
cycle= 14 E= -835.56516005895  delta_E= -1.21e-10  |g|= 4.78e-06  |ddm|= 2.97e-05
    CPU time for cycle= 14     38.97 sec, wall time     15.85 sec
  HOMO = -0.116758959597558  LUMO = -0.0202986482748064
  mo_energy =
[-10.04403518 -10.04296393 -10.03536038 -10.03324898 -10.0302541
 -10.02961922 -10.02275948 -10.02077648 -10.01969956 -10.01890081
 -10.01768775 -10.01711555 -10.01497864 -10.01425009 -10.00850291
 -10.0071363  -10.00661862 -10.00542763 -10.00539678 -10.00311224
 -10.00262003 -10.00197497  -0.85842334  -0.84851869  -0.83694902
  -0.78052317  -0.77402974  -0.75768185  -0.74044364  -0.72279108
  -0.69635887  -0.67974307  -0.64655955  -0.62970567  -0.60675216
  -0.58466696  -0.56620487  -0.56333617  -0.54340265  -0.52706045
  -0.50844203  -0.48185958  -0.47513169  -0.45936238  -0.44556429
  -0.43814847  -0.42028285  -0.41309563  -0.4069951   -0.39809587
  -0.39281167  -0.37646936  -0.37434246  -0.37239352  -0.36865893
  -0.35545728  -0.33899623  -0.3363505   -0.31902879  -0.28810771
  -0.2794145   -0.27027145  -0.26862918  -0.2593642   -0.25724021
  -0.25116751  -0.2348332   -0.22547848  -0.21421021  -0.2039671
  -0.1752377   -0.14855107  -0.11675896  -0.02029865   0.0167358
   0.0597585    0.08003675   0.09551756   0.11232502   0.15059745
   0.18599329   0.19432755   0.21845224   0.23932625   0.25158151
   0.26510711   0.28081619   0.29199272   0.2993532    0.30249564
   0.31910729   0.33275025   0.3458679    0.36648446   0.36990613
   0.37592766   0.40669295   0.41460502   0.42746658   0.44034375
   0.49871361   0.51965078   0.52279193   0.53253624   0.54521379
   0.55676582   0.56889235   0.6021692    0.61705063   0.61750938
   0.64078475   0.67824287   0.70181965   0.71709151   0.73127408
   0.74609813   0.7652045    0.82421916   0.84149022   0.87114346
   0.90178882   0.91614632   0.92920101   1.05724002]
nelec by numeric integration = 146.0000090489167
    CPU time for vxc     37.76 sec, wall time     15.62 sec
E1 = -4104.1676626808985  Ecoul = 1896.857151718937  Exc = -124.60864530936931
cycle= 15 E= -835.565160058955  delta_E= -5e-12  |g|= 3.61e-06  |ddm|= 1.1e-05
    CPU time for cycle= 15     38.10 sec, wall time     15.68 sec
  HOMO = -0.116758776445082  LUMO = -0.0202983698972467
  mo_energy =
[-10.04403485 -10.0429645  -10.03536039 -10.0332489  -10.03025352
 -10.02961938 -10.02275853 -10.02077685 -10.01969928 -10.0189018
 -10.01768863 -10.01711496 -10.01497828 -10.01424932 -10.00850353
 -10.0071361  -10.00661897 -10.00542609 -10.00539489 -10.00311387
 -10.00262007 -10.00197401  -0.85842329  -0.84851856  -0.83694892
  -0.78052309  -0.77402952  -0.75768184  -0.74044366  -0.7227911
  -0.69635891  -0.67974262  -0.64655955  -0.62970557  -0.60675191
  -0.58466683  -0.56620467  -0.56333627  -0.54340252  -0.52706029
  -0.50844197  -0.4818596   -0.47513163  -0.45936239  -0.44556374
  -0.43814844  -0.42028255  -0.41309562  -0.40699527  -0.39809582
  -0.39281161  -0.37646933  -0.3743424   -0.37239357  -0.36865902
  -0.35545714  -0.33899613  -0.33635038  -0.31902859  -0.28810725
  -0.27941426  -0.27027134  -0.26862907  -0.25936421  -0.25724009
  -0.25116767  -0.2348332   -0.22547855  -0.21421023  -0.20396695
  -0.17523764  -0.14855081  -0.11675878  -0.02029837   0.01673593
   0.05975852   0.08003683   0.09551764   0.11232504   0.15059737
   0.18599334   0.19432768   0.21845274   0.23932648   0.25158146
   0.26510714   0.28081632   0.29199293   0.29935326   0.30249568
   0.31910733   0.33275031   0.34586805   0.3664846    0.36990632
   0.37592771   0.40669294   0.41460502   0.42746678   0.44034388
   0.4987141    0.51965076   0.52279193   0.53253631   0.54521383
   0.55676575   0.56889242   0.60216928   0.61705089   0.61750938
   0.64078492   0.67824279   0.70181999   0.71709138   0.73127454
   0.74609801   0.76520387   0.82421921   0.84149027   0.87114335
   0.90178863   0.91614629   0.92920155   1.05724061]
nelec by numeric integration = 146.0000090489157
    CPU time for vxc     37.78 sec, wall time     15.73 sec
E1 = -4104.167651627844  Ecoul = 1896.8571406584535  Exc = -124.60864530190945
Extra cycle  E= -835.565160058924  delta_E= 3.09e-11  |g|= 8.87e-06  |ddm|= 1.85e-05
    CPU time for scf_cycle    665.98 sec, wall time    271.67 sec
    CPU time for SCF    665.98 sec, wall time    271.67 sec
converged SCF energy = -835.565160058924
nelec by numeric integration = 146.0000090489157
    CPU time for vxc     37.69 sec, wall time     15.61 sec
 ** Mulliken pop  **
pop of  0 C 1s            1.99124
pop of  0 C 2s            1.19234
pop of  0 C 2px           0.94596
pop of  0 C 2py           0.92290
pop of  0 C 2pz           0.91429
pop of  1 C 1s            1.99065
pop of  1 C 2s            1.08089
pop of  1 C 2px           1.01188
pop of  1 C 2py           0.98007
pop of  1 C 2pz           0.93949
pop of  2 C 1s            1.99150
pop of  2 C 2s            1.24685
pop of  2 C 2px           0.89418
pop of  2 C 2py           0.94552
pop of  2 C 2pz           0.97629
pop of  3 C 1s            1.99086
pop of  3 C 2s            1.15385
pop of  3 C 2px           1.03997
pop of  3 C 2py           0.93843
pop of  3 C 2pz           0.99701
pop of  4 C 1s            1.99068
pop of  4 C 2s            1.06157
pop of  4 C 2px           1.04981
pop of  4 C 2py           1.00342
pop of  4 C 2pz           1.01048
pop of  5 C 1s            1.99169
pop of  5 C 2s            1.20620
pop of  5 C 2px           0.97346
pop of  5 C 2py           0.92119
pop of  5 C 2pz           1.00279
pop of  6 C 1s            1.99164
pop of  6 C 2s            1.15986
pop of  6 C 2px           0.93986
pop of  6 C 2py           0.95113
pop of  6 C 2pz           0.95781
pop of  7 C 1s            1.99116
pop of  7 C 2s            1.18455
pop of  7 C 2px           1.02518
pop of  7 C 2py           1.01064
pop of  7 C 2pz           0.94773
pop of  8 C 1s            1.99068
pop of  8 C 2s            1.13295
pop of  8 C 2px           0.98934
pop of  8 C 2py           0.91868
pop of  8 C 2pz           0.94445
pop of  9 C 1s            1.99104
pop of  9 C 2s            1.11881
pop of  9 C 2px           0.99601
pop of  9 C 2py           0.93808
pop of  9 C 2pz           0.94440
pop of  10 C 1s           1.99103
pop of  10 C 2s           1.10999
pop of  10 C 2px          1.00973
pop of  10 C 2py          1.00744
pop of  10 C 2pz          1.01025
pop of  11 C 1s           1.99035
pop of  11 C 2s           1.06924
pop of  11 C 2px          1.04514
pop of  11 C 2py          1.00365
pop of  11 C 2pz          1.03939
pop of  12 C 1s           1.99189
pop of  12 C 2s           1.12015
pop of  12 C 2px          0.98026
pop of  12 C 2py          0.99219
pop of  12 C 2pz          0.92546
pop of  13 C 1s           1.99140
pop of  13 C 2s           1.14773
pop of  13 C 2px          0.93815
pop of  13 C 2py          0.94320
pop of  13 C 2pz          0.95507
pop of  14 C 1s           1.99153
pop of  14 C 2s           1.21650
pop of  14 C 2px          0.96436
pop of  14 C 2py          0.90999
pop of  14 C 2pz          0.93503
pop of  15 C 1s           1.99065
pop of  15 C 2s           1.10037
pop of  15 C 2px          1.02101
pop of  15 C 2py          0.96349
pop of  15 C 2pz          1.03071
pop of  16 C 1s           1.99066
pop of  16 C 2s           1.11021
pop of  16 C 2px          0.99498
pop of  16 C 2py          0.95697
pop of  16 C 2pz          0.95104
pop of  17 C 1s           1.99003
pop of  17 C 2s           1.04732
pop of  17 C 2px          1.03352
pop of  17 C 2py          0.99186
pop of  17 C 2pz          0.97079
pop of  18 C 1s           1.99136
pop of  18 C 2s           1.22917
pop of  18 C 2px          0.99291
pop of  18 C 2py          0.90956
pop of  18 C 2pz          0.93781
pop of  19 C 1s           1.99119
pop of  19 C 2s           1.11747
pop of  19 C 2px          0.97091
pop of  19 C 2py          0.96648
pop of  19 C 2pz          0.96374
pop of  20 C 1s           1.99141
pop of  20 C 2s           1.22122
pop of  20 C 2px          0.97015
pop of  20 C 2py          0.93756
pop of  20 C 2pz          0.91986
pop of  21 C 1s           1.99050
pop of  21 C 2s           1.11540
pop of  21 C 2px          1.03084
pop of  21 C 2py          1.02236
pop of  21 C 2pz          0.97574
pop of  22 H 1s           0.91696
pop of  23 H 1s           0.88016
pop of  24 H 1s           0.91892
pop of  25 H 1s           0.89760
pop of  26 H 1s           0.98049
pop of  27 H 1s           0.87907
pop of  28 H 1s           0.91250
pop of  29 H 1s           0.89404
pop of  30 H 1s           0.95040
pop of  31 H 1s           0.89682
pop of  32 H 1s           0.90935
pop of  33 H 1s           0.97023
pop of  34 H 1s           0.96240
pop of  35 H 1s           0.88323
 ** Mulliken atomic charges  **
charge of    0C =      0.03326
charge of    1C =     -0.00300
charge of    2C =     -0.05434
charge of    3C =     -0.12013
charge of    4C =     -0.11596
charge of    5C =     -0.09532
charge of    6C =     -0.00030
charge of    7C =     -0.15927
charge of    8C =      0.02390
charge of    9C =      0.01167
charge of   10C =     -0.12844
charge of   11C =     -0.14777
charge of   12C =     -0.00995
charge of   13C =      0.02446
charge of   14C =     -0.01741
charge of   15C =     -0.10623
charge of   16C =     -0.00385
charge of   17C =     -0.03351
charge of   18C =     -0.06081
charge of   19C =     -0.00979
charge of   20C =     -0.04020
charge of   21C =     -0.13484
charge of   22H =      0.08304
charge of   23H =      0.11984
charge of   24H =      0.08108
charge of   25H =      0.10240
charge of   26H =      0.01951
charge of   27H =      0.12093
charge of   28H =      0.08750
charge of   29H =      0.10596
charge of   30H =      0.04960
charge of   31H =      0.10318
charge of   32H =      0.09065
charge of   33H =      0.02977
charge of   34H =      0.03760
charge of   35H =      0.11677
Dipole moment(X, Y, Z, Debye): -0.52900, -0.22391,  0.59480
nelec by numeric integration = 146.0000090489157
    CPU time for vxc     37.85 sec, wall time     15.70 sec
E1 = -4104.167651627844  Ecoul = 1896.8571406584535  Exc = -124.60864530190945
nelec by numeric integration = 146.0000090489157
    CPU time for vxc     38.82 sec, wall time     15.96 sec
E1 = -4104.167651627844  Ecoul = 1896.8571406584538  Exc = -124.60864530190945
