System: uname_result(system='Linux', node='cosmopc18', release='5.15.0-97-generic', version='#107-Ubuntu SMP Wed Feb 7 13:26:48 UTC 2024', machine='x86_64')  Threads 4
Python 3.11.8 (main, Feb 26 2024, 21:39:34) [GCC 11.2.0]
numpy 1.26.4  scipy 1.11.4
Date: Tue Apr  9 11:36:18 2024
PySCF version 2.3.0
PySCF path  /home/saade/miniconda3/envs/tutorial/lib/python3.11/site-packages/pyscf

[ENV] PYSCFAD_BACKEND torch
[CONFIG] conf_file None
[INPUT] verbose = 5
[INPUT] max_memory = 4000 
[INPUT] num. atoms = 36
[INPUT] num. electrons = 146
[INPUT] charge = 0
[INPUT] spin (= nelec alpha-beta = 2S) = 0
[INPUT] symmetry False subgroup None
[INPUT] Mole.unit = angstrom
[INPUT] Symbol           X                Y                Z      unit          X                Y                Z       unit  Magmom
[INPUT]  1 C     -0.018279000000   3.551266000000   0.679921000000 AA   -0.034542303831   6.710920135480   1.284864476340 Bohr   0.0
[INPUT]  2 C     -0.057842000000   3.534231000000  -0.791040000000 AA   -0.109305538497   6.678728650948  -1.494848953576 Bohr   0.0
[INPUT]  3 C     -0.051080000000   4.962993000000   1.384385000000 AA   -0.096527210443   9.378697528134   2.616108500956 Bohr   0.0
[INPUT]  4 C      0.158056000000   2.478434000000   1.449886000000 AA    0.298682552344   4.683561477810   2.739887451841 Bohr   0.0
[INPUT]  5 C     -0.151025000000   4.995088000000  -1.511691000000 AA   -0.285395887962   9.439348288101  -2.856681974970 Bohr   0.0
[INPUT]  6 C      0.118815000000   2.449898000000  -1.441620000000 AA    0.224527809490   4.629636253120  -2.724266975695 Bohr   0.0
[INPUT]  7 C      0.001587000000   6.180433000000  -0.714022000000 AA    0.002998995360  11.679325701224  -1.349306026914 Bohr   0.0
[INPUT]  8 C     -0.017731000000   6.136274000000   0.640919000000 AA   -0.033506733915  11.595877285289   1.211161378030 Bohr   0.0
[INPUT]  9 C     -0.110235000000   1.215413000000   0.606842000000 AA   -0.208313959341   2.296797698236   1.146765180883 Bohr   0.0
[INPUT] 10 C     -0.060439000000   1.103365000000  -0.582813000000 AA   -0.114213157243   2.085057665431  -1.101356951836 Bohr   0.0
[INPUT] 11 C     -0.038423000000  -0.031136000000   1.233039000000 AA   -0.072608946884  -0.058838512614   2.330106010908 Bohr   0.0
[INPUT] 12 C     -0.034671000000   0.132398000000  -1.291015000000 AA   -0.065518694465   0.250195959440  -2.439664772705 Bohr   0.0
[INPUT] 13 C      0.047679000000  -1.225870000000   0.595632000000 AA    0.090100251893  -2.316558564321   1.125581351027 Bohr   0.0
[INPUT] 14 C      0.008156000000  -1.223536000000  -0.733178000000 AA    0.015412606272  -2.312147943546  -1.385505620556 Bohr   0.0
[INPUT] 15 C     -0.046824000000  -2.453808000000   1.424440000000 AA   -0.088484536057  -4.637025082267   2.691801480875 Bohr   0.0
[INPUT] 16 C      0.038047000000  -2.420933000000  -1.339994000000 AA    0.071898409861  -4.574900335922  -2.532221668560 Bohr   0.0
[INPUT] 17 C     -0.038945000000  -3.766055000000   0.884308000000 AA   -0.073595383921  -7.116812520049   1.671099929762 Bohr   0.0
[INPUT] 18 C      0.041012000000  -3.620256000000  -0.541484000000 AA    0.077501447821  -6.841292340813  -1.023256460834 Bohr   0.0
[INPUT] 19 C      0.029042000000  -5.010426000000   1.288730000000 AA    0.054881426110  -9.468332907400   2.435346748511 Bohr   0.0
[INPUT] 20 C     -0.061573000000  -4.923940000000  -1.372072000000 AA   -0.116356106668  -9.304898053791  -2.592840303184 Bohr   0.0
[INPUT] 21 C     -0.097543000000  -6.140257000000   0.788588000000 AA   -0.184329555368 -11.603404064443   1.490215345119 Bohr   0.0
[INPUT] 22 C      0.028701000000  -5.946887000000  -0.670484000000 AA    0.054237029501 -11.237987723736  -1.267031130903 Bohr   0.0
[INPUT] 23 H     -0.060831000000   4.821331000000   2.567935000000 AA   -0.114953929883   9.110995145875   4.852693855685 Bohr   0.0
[INPUT] 24 H     -0.113753000000   2.335052000000   2.698267000000 AA   -0.214962015848   4.412608766618   5.098985640952 Bohr   0.0
[INPUT] 25 H     -0.201510000000   5.013554000000  -2.473217000000 AA   -0.380798711361   9.474243970718  -4.673702776618 Bohr   0.0
[INPUT] 26 H      0.048390000000   2.642442000000  -2.546561000000 AA    0.091443847168   4.993491680048  -4.812302849499 Bohr   0.0
[INPUT] 27 H      0.086771000000   6.977771000000  -1.435804000000 AA    0.163973425555  13.186076149932  -2.713276328555 Bohr   0.0
[INPUT] 28 H     -0.200809000000   7.010444000000   1.166323000000 AA   -0.379474013348  13.247819171600   2.204031042781 Bohr   0.0
[INPUT] 29 H     -0.053513000000   0.052505000000   2.482409000000 AA   -0.101124914104   0.099220070170   4.691073139155 Bohr   0.0
[INPUT] 30 H     -0.054572000000   0.073510000000  -2.614520000000 AA   -0.103126134070   0.138913767417  -4.940726747198 Bohr   0.0
[INPUT] 31 H      0.082655000000  -2.747860000000   2.621321000000 AA    0.156195312826  -5.192702828647   4.953578774571 Bohr   0.0
[INPUT] 32 H     -0.168792000000  -2.270436000000  -2.375871000000 AA   -0.318970652018  -4.290502223353  -4.489745497297 Bohr   0.0
[INPUT] 33 H      0.123925000000  -4.985143000000   2.339377000000 AA    0.234184309987  -9.420554961793   4.420781832107 Bohr   0.0
[INPUT] 34 H     -0.087316000000  -4.895948000000  -2.501005000000 AA   -0.165003326293  -9.252000840112  -4.726214486168 Bohr   0.0
[INPUT] 35 H      0.085145000000  -6.911287000000   1.192743000000 AA    0.160900730876 -13.060439598267   2.253957606992 Bohr   0.0
[INPUT] 36 H     -0.031682000000  -6.941603000000  -1.244196000000 AA   -0.059870303078 -13.117728535459  -2.351189685279 Bohr   0.0
[INPUT] ---------------- BASIS SET ---------------- 
[INPUT] l, kappa, [nprim/nctr], expnt,             c_1 c_2 ...
[INPUT] H
[INPUT] 0    0    [3    /1   ]  3.42525091        0.15432897
                                0.62391373        0.53532814
                                0.1688554         0.44463454
[INPUT] C
[INPUT] 0    0    [3    /1   ]  71.616837         0.15432897
                                13.045096         0.53532814
                                3.5305122         0.44463454
[INPUT] 0    0    [3    /1   ]  2.9412494         -0.09996723
                                0.6834831         0.39951283
                                0.2222899         0.70011547
[INPUT] 1    0    [3    /1   ]  2.9412494         0.15591627
                                0.6834831         0.60768372
                                0.2222899         0.39195739

nuclear repulsion = 1505.59023670498
number of shells = 80
number of NR pGTOs = 372
number of NR cGTOs = 124
basis = sto3g
ecp = {}
CPU time:     16766.06
atom C rad-grids = 99, ang-grids = [ 50  50  50  50  50  50  50  50  50  50  50  50  50  50  50  50  50  50
  50  50  50  50  50  50  50  50  50  50  50  50  50  86  86  86  86  86
  86  86  86  86  86  86  86 434 434 434 434 434 434 434 434 434 590 590
 590 590 590 590 590 590 590 590 590 590 590 590 590 590 590 590 590 590
 590 590 590 590 590 590 590 434 434 434 434 434 434 434 434 434 434 434
 434 434 434 434 434 434 434 434 434]
atom H rad-grids = 99, ang-grids = [ 50  50  50  50  50  50  50  50  50  50  50  50  50  50  50  50  50  50
  50  50  50  50  50  50  50  50  50  50  86  86  86  86  86  86  86 434
 434 434 434 434 434 434 434 590 590 590 590 590 590 590 590 590 590 590
 590 590 590 590 590 590 590 590 590 590 590 590 590 590 590 434 434 434
 434 434 434 434 434 434 434 434 434 434 434 434 434 434 434 434 434 434
 434 434 434 434 434 434 434 434 434]
tot_boxes 5270, boxes in each direction [ 8 29 15]
Padding 0 grids
tot grids = 1157832


******** <class 'pyscf.dft.rks.RKS'> ********
method = RKS
initial guess = minao
damping factor = 0
level_shift factor = 0
DIIS = <class 'pyscf.scf.diis.CDIIS'>
diis_start_cycle = 1
diis_space = 8
SCF conv_tol = 1e-10
SCF conv_tol_grad = None
SCF max_cycles = 50
direct_scf = True
direct_scf_tol = 1e-13
chkfile to save SCF result = /home/saade/mlelec/tutorials/tmp0a4ql8rj
max_memory 4000 MB (current use 637 MB)
XC library pyscf.dft.libxc version 6.1.0
    S. Lehtola, C. Steigemann, M. J.T. Oliveira, and M. A.L. Marques.,  SoftwareX 7, 1–5 (2018)
XC functionals = b3lypg
    P. J. Stephens, F. J. Devlin, C. F. Chabalowski, and M. J. Frisch.,  J. Phys. Chem. 98, 11623 (1994)
radial grids: 
    Treutler-Ahlrichs [JCP 102, 346 (1995); DOI:10.1063/1.469408] (M4) radial grids
    
becke partition: Becke, JCP 88, 2547 (1988); DOI:10.1063/1.454033
pruning grids: <function nwchem_prune at 0x7f9db5616ca0>
grids dens level: 3
symmetrized grids: False
atomic radii adjust function: <function treutler_atomic_radii_adjust at 0x7f9db5617380>
User specified grid scheme (99, 590)
small_rho_cutoff = 1e-07
Set gradient conv threshold to 1e-05
Initial guess from minao.
nelec by numeric integration = 145.27236218115502
    CPU time for vxc     36.89 sec, wall time     15.53 sec
E1 = -4111.344645523085  Ecoul = 1890.1806764212756  Exc = -126.16163071250102
init E= -841.735363109331
cond(S) = 24.693378431453624
    CPU time for initialize scf     46.74 sec, wall time     17.90 sec
  HOMO = -0.211748103871056  LUMO = -0.135924701870635
  mo_energy =
[-1.01682822e+01 -1.01366660e+01 -1.01318348e+01 -1.01262881e+01
 -1.01205825e+01 -1.01196289e+01 -1.01185716e+01 -1.01107518e+01
 -1.01053320e+01 -1.01008898e+01 -1.01004739e+01 -1.00999390e+01
 -1.00998169e+01 -1.00989272e+01 -1.00976598e+01 -1.00941709e+01
 -1.00878781e+01 -1.00865507e+01 -1.00854442e+01 -1.00822802e+01
 -1.00817807e+01 -1.00712943e+01 -1.14053791e+00 -1.08614632e+00
 -1.03677314e+00 -9.96897324e-01 -9.43668332e-01 -9.37371528e-01
 -9.22968956e-01 -8.98337050e-01 -8.86329171e-01 -8.40234658e-01
 -8.01408991e-01 -7.62792184e-01 -7.31266611e-01 -7.12293302e-01
 -6.94778202e-01 -6.73931291e-01 -6.62537874e-01 -6.32623289e-01
 -6.02030477e-01 -5.82882577e-01 -5.80252520e-01 -5.59705371e-01
 -5.38864408e-01 -5.23248084e-01 -5.06364539e-01 -5.03498548e-01
 -4.93865981e-01 -4.91039945e-01 -4.82135124e-01 -4.66497184e-01
 -4.55337585e-01 -4.53886733e-01 -4.45620044e-01 -4.27462957e-01
 -4.16856828e-01 -4.12850529e-01 -4.11570814e-01 -3.93666781e-01
 -3.89023371e-01 -3.84421278e-01 -3.67205767e-01 -3.50545664e-01
 -3.45212867e-01 -3.37171668e-01 -3.32601600e-01 -3.20059652e-01
 -3.02638399e-01 -2.97831783e-01 -2.91210574e-01 -2.44018183e-01
 -2.11748104e-01 -1.35924702e-01 -1.05829875e-01 -6.99677649e-02
 -3.46095044e-02 -1.68985612e-02  1.84014158e-03  1.35951354e-02
  5.20645016e-02  6.60534755e-02  1.04251033e-01  1.20136131e-01
  1.36746630e-01  1.52526938e-01  1.66223828e-01  1.81091834e-01
  1.86307227e-01  1.90456479e-01  1.99845620e-01  2.05178426e-01
  2.20995635e-01  2.36994295e-01  2.37710894e-01  2.62954102e-01
  2.72649704e-01  2.92594302e-01  3.09466265e-01  3.14012784e-01
  3.57276832e-01  3.64325125e-01  3.72757336e-01  4.12290625e-01
  4.25525085e-01  4.30974984e-01  4.48396421e-01  4.67841069e-01
  4.82913242e-01  4.93864079e-01  5.06811542e-01  5.24946263e-01
  5.51052089e-01  5.74192406e-01  5.93858005e-01  6.15755471e-01
  6.31478143e-01  6.50108940e-01  6.86566416e-01  7.05313690e-01
  7.54919196e-01  7.90765126e-01  8.14502960e-01  8.88463465e-01]
nelec by numeric integration = 145.9999928053137
    CPU time for vxc     37.77 sec, wall time     15.74 sec
E1 = -4126.609217089421  Ecoul = 1910.0487653118366  Exc = -124.80245520533873
cycle= 1 E= -835.772670277943  delta_E= 5.96  |g|= 0.299  |ddm|= 9.29
    CPU time for cycle= 1     38.16 sec, wall time     15.81 sec
  HOMO = -0.0935653270995089  LUMO = 0.0126728210930475
  mo_energy =
[-10.07234801 -10.03250386 -10.02738198 -10.01650776 -10.00570341
 -10.00440441  -9.99738991  -9.99174486  -9.99039142  -9.98993011
  -9.98932393  -9.97995897  -9.97645379  -9.972748    -9.97112807
  -9.96570638  -9.95219138  -9.95097231  -9.94872617  -9.92913951
  -9.92381308  -9.92359222  -0.85381597  -0.83444615  -0.79095949
  -0.768996    -0.74009953  -0.7316261   -0.70584646  -0.70300671
  -0.68888239  -0.65361726  -0.6227198   -0.61961745  -0.58081769
  -0.56431147  -0.54659119  -0.53158287  -0.52298978  -0.505579
  -0.48723439  -0.46596421  -0.45528394  -0.43569026  -0.43218371
  -0.41198452  -0.3974726   -0.39273855  -0.38874887  -0.37164208
  -0.36430542  -0.36035966  -0.34579454  -0.34258179  -0.33699933
  -0.33396484  -0.31985368  -0.30683581  -0.29773121  -0.29451305
  -0.28480481  -0.27082527  -0.26175076  -0.24901448  -0.24059416
  -0.22289006  -0.21773185  -0.20655365  -0.19794937  -0.17970251
  -0.17566387  -0.13128602  -0.09356533   0.01267282   0.042238
   0.08253312   0.12178819   0.14629741   0.16646579   0.17016209
   0.21833208   0.2340252    0.24624989   0.25131178   0.27019954
   0.30024788   0.30530473   0.30953771   0.32383225   0.33381638
   0.34583701   0.36408432   0.38116333   0.39517873   0.40272887
   0.42019364   0.4252201    0.44405347   0.45381012   0.48026046
   0.50730225   0.51071667   0.5248256    0.5605201    0.56506303
   0.58274976   0.60570136   0.61428719   0.62714985   0.64800243
   0.6704324    0.68125297   0.70038728   0.74816381   0.75467017
   0.77839903   0.79078655   0.81846069   0.84396216   0.88433376
   0.89905661   0.94677692   1.03009483   1.11031673]
nelec by numeric integration = 145.99999273574912
    CPU time for vxc     37.89 sec, wall time     15.68 sec
E1 = -4120.979557087777  Ecoul = 1904.2829612835835  Exc = -124.63852339280616
cycle= 2 E= -835.74488249202  delta_E= 0.0278  |g|= 0.415  |ddm|= 1.13
    CPU time for cycle= 2     38.38 sec, wall time     15.76 sec
  HOMO = -0.110814757585575  LUMO = 0.00406159696340205
  mo_energy =
[-1.00362709e+01 -1.00250148e+01 -1.00195056e+01 -1.00154631e+01
 -1.00142951e+01 -1.00136169e+01 -1.00122134e+01 -1.00076237e+01
 -1.00064857e+01 -1.00063638e+01 -1.00046101e+01 -1.00039172e+01
 -1.00036755e+01 -1.00002226e+01 -1.00000704e+01 -9.99720585e+00
 -9.99343117e+00 -9.99238334e+00 -9.99144573e+00 -9.98915539e+00
 -9.98009559e+00 -9.97722513e+00 -8.83019637e-01 -8.41768121e-01
 -8.11229793e-01 -7.84758006e-01 -7.50357908e-01 -7.38507808e-01
 -7.30461566e-01 -7.16353665e-01 -7.04471149e-01 -6.73118044e-01
 -6.47774319e-01 -6.12951469e-01 -5.92684153e-01 -5.74874208e-01
 -5.60179629e-01 -5.45072689e-01 -5.38584277e-01 -5.15388467e-01
 -4.94095146e-01 -4.72463660e-01 -4.71647537e-01 -4.52509645e-01
 -4.42163659e-01 -4.20463736e-01 -4.03888692e-01 -3.99364658e-01
 -3.98979803e-01 -3.86687926e-01 -3.81718193e-01 -3.75475486e-01
 -3.60764334e-01 -3.58299439e-01 -3.46863361e-01 -3.42416438e-01
 -3.23959350e-01 -3.21218590e-01 -3.10866280e-01 -3.00018812e-01
 -2.96092189e-01 -2.87759687e-01 -2.80694836e-01 -2.59073243e-01
 -2.49296328e-01 -2.40216252e-01 -2.31526306e-01 -2.27484814e-01
 -2.13819403e-01 -1.95652184e-01 -1.89609249e-01 -1.44749448e-01
 -1.10814758e-01  4.06159696e-03  3.41061478e-02  7.23832782e-02
  1.06185351e-01  1.30402141e-01  1.45047481e-01  1.60612571e-01
  1.98077812e-01  2.03390316e-01  2.41572652e-01  2.56555749e-01
  2.75580650e-01  2.98814819e-01  3.02908316e-01  3.10187777e-01
  3.18110544e-01  3.24981533e-01  3.31841027e-01  3.52547648e-01
  3.62705872e-01  3.74283414e-01  3.85569679e-01  4.08618534e-01
  4.17770125e-01  4.31714734e-01  4.40891359e-01  4.57498024e-01
  4.95443450e-01  4.95880672e-01  5.13249005e-01  5.52266236e-01
  5.66195401e-01  5.80333553e-01  5.94114984e-01  6.01949531e-01
  6.17392918e-01  6.34423347e-01  6.48502227e-01  6.75906209e-01
  6.95344187e-01  7.17042414e-01  7.35701321e-01  7.60790720e-01
  7.67194060e-01  8.00976727e-01  8.39199311e-01  8.48554190e-01
  9.01022605e-01  9.43356843e-01  9.72836585e-01  1.04434877e+00]
nelec by numeric integration = 145.99999274605372
    CPU time for vxc     37.72 sec, wall time     15.66 sec
E1 = -4122.694438257928  Ecoul = 1905.9824883509007  Exc = -124.67697752760103
cycle= 3 E= -835.798690729648  delta_E= -0.0538  |g|= 0.176  |ddm|= 0.897
    CPU time for cycle= 3     38.25 sec, wall time     15.74 sec
  HOMO = -0.11939974011733  LUMO = -0.00677080972392257
  mo_energy =
[-1.00447581e+01 -1.00348395e+01 -1.00310520e+01 -1.00261251e+01
 -1.00251119e+01 -1.00233177e+01 -1.00212986e+01 -1.00207608e+01
 -1.00198275e+01 -1.00195170e+01 -1.00163526e+01 -1.00159250e+01
 -1.00144936e+01 -1.00144563e+01 -1.00141417e+01 -1.00114981e+01
 -1.00108421e+01 -1.00063213e+01 -1.00043370e+01 -1.00006626e+01
 -1.00006143e+01 -9.99311789e+00 -8.91577359e-01 -8.53349160e-01
 -8.19176363e-01 -7.91937532e-01 -7.57407480e-01 -7.48223251e-01
 -7.38173691e-01 -7.25631280e-01 -7.12487173e-01 -6.78945603e-01
 -6.50978098e-01 -6.26988268e-01 -5.98974678e-01 -5.82934506e-01
 -5.68163334e-01 -5.51789205e-01 -5.44908221e-01 -5.20485083e-01
 -4.98913178e-01 -4.80590119e-01 -4.76309697e-01 -4.58391928e-01
 -4.47090450e-01 -4.27564207e-01 -4.08662926e-01 -4.07535411e-01
 -4.03664301e-01 -3.92993930e-01 -3.90202846e-01 -3.79768628e-01
 -3.67501552e-01 -3.62623469e-01 -3.56994052e-01 -3.49937935e-01
 -3.31429725e-01 -3.26758521e-01 -3.18471167e-01 -3.12334218e-01
 -3.03926550e-01 -2.94872810e-01 -2.85804772e-01 -2.66541473e-01
 -2.59171338e-01 -2.46787563e-01 -2.40187316e-01 -2.33384263e-01
 -2.23401156e-01 -2.05682983e-01 -1.98579634e-01 -1.52866913e-01
 -1.19399740e-01 -6.77080972e-03  2.39632903e-02  6.37297391e-02
  9.82623253e-02  1.19772582e-01  1.38746491e-01  1.49970090e-01
  1.89903741e-01  2.05846836e-01  2.34840701e-01  2.47678041e-01
  2.60099183e-01  2.90422023e-01  2.93939147e-01  3.06208776e-01
  3.15568407e-01  3.20914694e-01  3.25043562e-01  3.42436404e-01
  3.55205480e-01  3.69408853e-01  3.76995744e-01  4.01384656e-01
  4.11946514e-01  4.28494170e-01  4.35322928e-01  4.49104535e-01
  4.90245603e-01  4.93810520e-01  5.04387331e-01  5.44418817e-01
  5.58482292e-01  5.66280297e-01  5.85591987e-01  5.98230650e-01
  6.11090749e-01  6.26029025e-01  6.41204831e-01  6.62580282e-01
  6.84532798e-01  7.09964487e-01  7.27895715e-01  7.54690858e-01
  7.60348355e-01  7.90322326e-01  8.29016236e-01  8.44558184e-01
  8.88880260e-01  9.33103342e-01  9.65841377e-01  1.03882541e+00]
nelec by numeric integration = 145.99999276400263
    CPU time for vxc     38.32 sec, wall time     15.83 sec
E1 = -4123.585582907092  Ecoul = 1906.8825094843144  Exc = -124.69667245717841
cycle= 4 E= -835.809509174977  delta_E= -0.0108  |g|= 0.0434  |ddm|= 0.32
    CPU time for cycle= 4     38.96 sec, wall time     15.93 sec
  HOMO = -0.117871243370218  LUMO = -0.00492207965610781
  mo_energy =
[-1.00331437e+01 -1.00301835e+01 -1.00284782e+01 -1.00260279e+01
 -1.00247127e+01 -1.00245446e+01 -1.00212813e+01 -1.00194528e+01
 -1.00193219e+01 -1.00178575e+01 -1.00151831e+01 -1.00139892e+01
 -1.00107384e+01 -1.00107011e+01 -1.00088575e+01 -1.00083575e+01
 -1.00078181e+01 -1.00075883e+01 -1.00054636e+01 -1.00030046e+01
 -1.00016083e+01 -1.00015169e+01 -8.84670458e-01 -8.55196061e-01
 -8.17308004e-01 -7.91022922e-01 -7.56625310e-01 -7.48235018e-01
 -7.34896636e-01 -7.26031600e-01 -7.10853311e-01 -6.77345880e-01
 -6.49874674e-01 -6.26344798e-01 -5.98843084e-01 -5.81215711e-01
 -5.65555791e-01 -5.51321107e-01 -5.43920961e-01 -5.20811545e-01
 -4.99100396e-01 -4.79813520e-01 -4.75283474e-01 -4.56814690e-01
 -4.46149639e-01 -4.27618566e-01 -4.08411084e-01 -4.06495769e-01
 -4.04212115e-01 -3.89955495e-01 -3.87872792e-01 -3.78185837e-01
 -3.66053308e-01 -3.62665502e-01 -3.57887532e-01 -3.47397606e-01
 -3.29549305e-01 -3.24310559e-01 -3.17628471e-01 -3.11993417e-01
 -3.04287061e-01 -2.93966091e-01 -2.85082461e-01 -2.64146309e-01
 -2.59259016e-01 -2.45288178e-01 -2.37678917e-01 -2.32175024e-01
 -2.24617012e-01 -2.05043245e-01 -1.98509429e-01 -1.52421342e-01
 -1.17871243e-01 -4.92207966e-03  2.44787471e-02  6.32147453e-02
  9.95697441e-02  1.23037717e-01  1.39926340e-01  1.49568847e-01
  1.91424041e-01  2.08295992e-01  2.36784792e-01  2.50096704e-01
  2.61150652e-01  2.89812387e-01  2.96686886e-01  3.07088027e-01
  3.14379144e-01  3.21876176e-01  3.25419240e-01  3.44708941e-01
  3.58131964e-01  3.68450508e-01  3.78855162e-01  4.04271092e-01
  4.10182126e-01  4.29379987e-01  4.36644131e-01  4.49975226e-01
  4.92498781e-01  4.93739190e-01  5.04958195e-01  5.45691687e-01
  5.59014800e-01  5.67210850e-01  5.86361562e-01  5.97478058e-01
  6.10310312e-01  6.25788688e-01  6.43188631e-01  6.65161138e-01
  6.84851071e-01  7.12928088e-01  7.29460667e-01  7.55468549e-01
  7.61422538e-01  7.92051353e-01  8.26770935e-01  8.45461519e-01
  8.86676963e-01  9.30346977e-01  9.73448333e-01  1.04669308e+00]
nelec by numeric integration = 145.99999275575132
    CPU time for vxc     38.38 sec, wall time     15.93 sec
E1 = -4123.369249394949  Ecoul = 1906.662640370604  Exc = -124.69364237033875
cycle= 5 E= -835.810014689704  delta_E= -0.000506  |g|= 0.0225  |ddm|= 0.094
    CPU time for cycle= 5     38.76 sec, wall time     15.99 sec
  HOMO = -0.117541731085392  LUMO = -0.00416496246688525
  mo_energy =
[-1.00348261e+01 -1.00303350e+01 -1.00252073e+01 -1.00237233e+01
 -1.00222009e+01 -1.00217107e+01 -1.00213928e+01 -1.00194926e+01
 -1.00181979e+01 -1.00170953e+01 -1.00126085e+01 -1.00125477e+01
 -1.00121553e+01 -1.00114640e+01 -1.00106791e+01 -1.00095667e+01
 -1.00087730e+01 -1.00048089e+01 -1.00035962e+01 -1.00016653e+01
 -9.99883119e+00 -9.99681213e+00 -8.85491588e-01 -8.53239149e-01
 -8.16685173e-01 -7.90135943e-01 -7.55661350e-01 -7.46915866e-01
 -7.34920456e-01 -7.24813085e-01 -7.10251113e-01 -6.76941245e-01
 -6.49201618e-01 -6.25205797e-01 -5.97971735e-01 -5.80709135e-01
 -5.65620607e-01 -5.50591434e-01 -5.43158860e-01 -5.20021556e-01
 -4.98245831e-01 -4.79077384e-01 -4.74983283e-01 -4.56489773e-01
 -4.45608506e-01 -4.26794432e-01 -4.07714678e-01 -4.05799852e-01
 -4.03353423e-01 -3.89826420e-01 -3.87993990e-01 -3.77991774e-01
 -3.65459978e-01 -3.61814149e-01 -3.56576782e-01 -3.48122219e-01
 -3.29321727e-01 -3.24813259e-01 -3.16846770e-01 -3.11094735e-01
 -3.03442283e-01 -2.93424511e-01 -2.84418763e-01 -2.64340290e-01
 -2.58253602e-01 -2.44756655e-01 -2.37411677e-01 -2.31597411e-01
 -2.23270751e-01 -2.04018339e-01 -1.97751225e-01 -1.51752978e-01
 -1.17541731e-01 -4.16496247e-03  2.54035391e-02  6.43325620e-02
  1.00239854e-01  1.23098968e-01  1.40702927e-01  1.50851554e-01
  1.91836358e-01  2.08068810e-01  2.36771018e-01  2.49967489e-01
  2.61842453e-01  2.91235820e-01  2.96470855e-01  3.07066342e-01
  3.15459231e-01  3.22236964e-01  3.26271056e-01  3.44913383e-01
  3.58074776e-01  3.69580088e-01  3.79173575e-01  4.04435126e-01
  4.11469853e-01  4.29671989e-01  4.37054183e-01  4.50748433e-01
  4.92635768e-01  4.94730414e-01  5.05578498e-01  5.46365290e-01
  5.59883825e-01  5.68212599e-01  5.86946828e-01  5.98894286e-01
  6.11801479e-01  6.27087496e-01  6.43708035e-01  6.65580146e-01
  6.85688191e-01  7.13187189e-01  7.30042819e-01  7.56199290e-01
  7.61971121e-01  7.92453185e-01  8.28777835e-01  8.46859885e-01
  8.88628835e-01  9.32359153e-01  9.72209672e-01  1.04538373e+00]
nelec by numeric integration = 145.999992755841
    CPU time for vxc     37.46 sec, wall time     15.60 sec
E1 = -4123.322904372932  Ecoul = 1906.6142317660644  Exc = -124.69174717120262
cycle= 6 E= -835.81018307309  delta_E= -0.000168  |g|= 0.00849  |ddm|= 0.0429
    CPU time for cycle= 6     37.93 sec, wall time     15.67 sec
  HOMO = -0.117604879717131  LUMO = -0.00417579918305546
  mo_energy =
[-1.00356903e+01 -1.00306551e+01 -1.00248879e+01 -1.00225414e+01
 -1.00223171e+01 -1.00218389e+01 -1.00218171e+01 -1.00191167e+01
 -1.00181881e+01 -1.00170492e+01 -1.00132181e+01 -1.00122322e+01
 -1.00114899e+01 -1.00114722e+01 -1.00098729e+01 -1.00097712e+01
 -1.00078428e+01 -1.00046794e+01 -1.00032005e+01 -1.00006652e+01
 -9.99957493e+00 -9.99790022e+00 -8.85812408e-01 -8.53008410e-01
 -8.16668589e-01 -7.90053281e-01 -7.55575609e-01 -7.46830019e-01
 -7.35027088e-01 -7.24640949e-01 -7.10313630e-01 -6.76907495e-01
 -6.49239690e-01 -6.25205261e-01 -5.97822443e-01 -5.80700764e-01
 -5.65694598e-01 -5.50550810e-01 -5.43226398e-01 -5.19827336e-01
 -4.98147779e-01 -4.79025135e-01 -4.74943833e-01 -4.56433309e-01
 -4.45592972e-01 -4.26606060e-01 -4.07607313e-01 -4.05871616e-01
 -4.03252798e-01 -3.89877465e-01 -3.88108368e-01 -3.78056562e-01
 -3.65515845e-01 -3.61847673e-01 -3.56411182e-01 -3.47858714e-01
 -3.29295925e-01 -3.24913044e-01 -3.16811949e-01 -3.11179758e-01
 -3.03280026e-01 -2.93402753e-01 -2.84442335e-01 -2.64204055e-01
 -2.58167519e-01 -2.44783051e-01 -2.37537087e-01 -2.31668570e-01
 -2.23148858e-01 -2.04050683e-01 -1.97581149e-01 -1.51682558e-01
 -1.17604880e-01 -4.17579918e-03  2.55222650e-02  6.45282003e-02
  1.00258891e-01  1.23049749e-01  1.40679350e-01  1.50982711e-01
  1.91934442e-01  2.07848449e-01  2.36865249e-01  2.50062718e-01
  2.61606786e-01  2.91291257e-01  2.96318724e-01  3.07318869e-01
  3.15637086e-01  3.22245366e-01  3.26189600e-01  3.44849439e-01
  3.57898788e-01  3.69718510e-01  3.79391958e-01  4.04442847e-01
  4.11752116e-01  4.29839265e-01  4.37134647e-01  4.50731417e-01
  4.92675410e-01  4.94679476e-01  5.05624565e-01  5.46423073e-01
  5.59955642e-01  5.68169608e-01  5.87060919e-01  5.98861369e-01
  6.11718254e-01  6.27144603e-01  6.43693291e-01  6.65549401e-01
  6.85821575e-01  7.13080130e-01  7.30245943e-01  7.56296174e-01
  7.62063778e-01  7.92564146e-01  8.29128177e-01  8.46590391e-01
  8.88893265e-01  9.32785445e-01  9.71892935e-01  1.04495759e+00]
nelec by numeric integration = 145.99999275655304
    CPU time for vxc     37.86 sec, wall time     15.66 sec
E1 = -4123.33138540715  Ecoul = 1906.6224716995307  Exc = -124.69153067586065
cycle= 7 E= -835.8102076785  delta_E= -2.46e-05  |g|= 0.00147  |ddm|= 0.0136
    CPU time for cycle= 7     38.28 sec, wall time     15.73 sec
  HOMO = -0.117597202230883  LUMO = -0.00412796481726742
  mo_energy =
[-1.00356751e+01 -1.00305060e+01 -1.00249272e+01 -1.00225472e+01
 -1.00219824e+01 -1.00217829e+01 -1.00215535e+01 -1.00190556e+01
 -1.00183789e+01 -1.00173637e+01 -1.00134172e+01 -1.00122998e+01
 -1.00115446e+01 -1.00113932e+01 -1.00098637e+01 -1.00096338e+01
 -1.00081683e+01 -1.00049469e+01 -1.00032959e+01 -1.00007120e+01
 -9.99954450e+00 -9.99760921e+00 -8.85748936e-01 -8.53061189e-01
 -8.16670551e-01 -7.90080379e-01 -7.55609439e-01 -7.46860938e-01
 -7.35015805e-01 -7.24659732e-01 -7.10301506e-01 -6.76898711e-01
 -6.49248291e-01 -6.25162890e-01 -5.97865356e-01 -5.80710121e-01
 -5.65643230e-01 -5.50559972e-01 -5.43234416e-01 -5.19839967e-01
 -4.98163626e-01 -4.79010079e-01 -4.74951324e-01 -4.56434406e-01
 -4.45613792e-01 -4.26632820e-01 -4.07629868e-01 -4.05853720e-01
 -4.03293357e-01 -3.89857140e-01 -3.88073428e-01 -3.78036312e-01
 -3.65534743e-01 -3.61826285e-01 -3.56437180e-01 -3.47866426e-01
 -3.29266545e-01 -3.24856575e-01 -3.16822978e-01 -3.11131233e-01
 -3.03310508e-01 -2.93399135e-01 -2.84468512e-01 -2.64233005e-01
 -2.58188393e-01 -2.44807962e-01 -2.37524261e-01 -2.31662604e-01
 -2.23189223e-01 -2.04062382e-01 -1.97583691e-01 -1.51677202e-01
 -1.17597202e-01 -4.12796482e-03  2.55536139e-02  6.45032403e-02
  1.00247276e-01  1.23065611e-01  1.40645428e-01  1.50954375e-01
  1.91936725e-01  2.07883298e-01  2.36867555e-01  2.50076941e-01
  2.61751806e-01  2.91273880e-01  2.96419794e-01  3.07259982e-01
  3.15563391e-01  3.22244681e-01  3.26194864e-01  3.44896749e-01
  3.57938296e-01  3.69644934e-01  3.79306807e-01  4.04422918e-01
  4.11683655e-01  4.29799878e-01  4.37127464e-01  4.50748095e-01
  4.92666601e-01  4.94673664e-01  5.05648031e-01  5.46426661e-01
  5.59972698e-01  5.68223774e-01  5.87068900e-01  5.98830727e-01
  6.11710182e-01  6.27099417e-01  6.43663159e-01  6.65596927e-01
  6.85847761e-01  7.13096845e-01  7.30152138e-01  7.56293184e-01
  7.62067626e-01  7.92609890e-01  8.29040512e-01  8.46548485e-01
  8.88868031e-01  9.32732443e-01  9.71959137e-01  1.04501482e+00]
nelec by numeric integration = 145.999992756443
    CPU time for vxc     37.84 sec, wall time     15.73 sec
E1 = -4123.333520883563  Ecoul = 1906.6246680813651  Exc = -124.6915922951757
cycle= 8 E= -835.810208392394  delta_E= -7.14e-07  |g|= 0.000622  |ddm|= 0.0029
    CPU time for cycle= 8     38.15 sec, wall time     15.78 sec
  HOMO = -0.117608238053066  LUMO = -0.00412499872312865
  mo_energy =
[-1.00356306e+01 -1.00305116e+01 -1.00249040e+01 -1.00225342e+01
 -1.00220578e+01 -1.00218363e+01 -1.00215260e+01 -1.00190810e+01
 -1.00182803e+01 -1.00172552e+01 -1.00133632e+01 -1.00123039e+01
 -1.00115396e+01 -1.00114983e+01 -1.00098507e+01 -1.00096056e+01
 -1.00081012e+01 -1.00049334e+01 -1.00033124e+01 -1.00007540e+01
 -9.99956218e+00 -9.99775037e+00 -8.85739362e-01 -8.53054605e-01
 -8.16670297e-01 -7.90078821e-01 -7.55609827e-01 -7.46854239e-01
 -7.35008018e-01 -7.24660524e-01 -7.10302444e-01 -6.76900784e-01
 -6.49255517e-01 -6.25167042e-01 -5.97861428e-01 -5.80703456e-01
 -5.65633759e-01 -5.50554693e-01 -5.43233067e-01 -5.19851341e-01
 -4.98173474e-01 -4.79019551e-01 -4.74944535e-01 -4.56432538e-01
 -4.45614768e-01 -4.26631457e-01 -4.07622209e-01 -4.05853394e-01
 -4.03297576e-01 -3.89849494e-01 -3.88068257e-01 -3.78034771e-01
 -3.65528839e-01 -3.61841709e-01 -3.56430890e-01 -3.47856146e-01
 -3.29268689e-01 -3.24834502e-01 -3.16822398e-01 -3.11127171e-01
 -3.03297493e-01 -2.93397721e-01 -2.84463410e-01 -2.64214980e-01
 -2.58183591e-01 -2.44800948e-01 -2.37517198e-01 -2.31662828e-01
 -2.23183362e-01 -2.04054444e-01 -1.97586984e-01 -1.51689133e-01
 -1.17608238e-01 -4.12499872e-03  2.55434585e-02  6.45129436e-02
  1.00248633e-01  1.23072678e-01  1.40656052e-01  1.50957475e-01
  1.91934039e-01  2.07895650e-01  2.36871720e-01  2.50084839e-01
  2.61754957e-01  2.91278983e-01  2.96436070e-01  3.07274056e-01
  3.15559665e-01  3.22253756e-01  3.26192672e-01  3.44914389e-01
  3.57949422e-01  3.69654378e-01  3.79335337e-01  4.04433533e-01
  4.11688028e-01  4.29797807e-01  4.37127223e-01  4.50745261e-01
  4.92661957e-01  4.94655073e-01  5.05652119e-01  5.46421742e-01
  5.59964591e-01  5.68230601e-01  5.87070529e-01  5.98816812e-01
  6.11692015e-01  6.27110697e-01  6.43671949e-01  6.65597605e-01
  6.85841786e-01  7.13091503e-01  7.30171642e-01  7.56284473e-01
  7.62059073e-01  7.92602189e-01  8.29033670e-01  8.46555834e-01
  8.88868000e-01  9.32724859e-01  9.71970889e-01  1.04503579e+00]
nelec by numeric integration = 145.99999275646226
    CPU time for vxc     38.01 sec, wall time     15.74 sec
E1 = -4123.332856321572  Ecoul = 1906.6240264230182  Exc = -124.69161532571583
cycle= 9 E= -835.81020851929  delta_E= -1.27e-07  |g|= 0.000175  |ddm|= 0.000976
    CPU time for cycle= 9     38.50 sec, wall time     15.82 sec
  HOMO = -0.117610851327449  LUMO = -0.00412545778736958
  mo_energy =
[-1.00356340e+01 -1.00305094e+01 -1.00249218e+01 -1.00225499e+01
 -1.00220716e+01 -1.00218436e+01 -1.00215636e+01 -1.00190776e+01
 -1.00183072e+01 -1.00172451e+01 -1.00133558e+01 -1.00123082e+01
 -1.00115310e+01 -1.00114533e+01 -1.00098861e+01 -1.00095966e+01
 -1.00081200e+01 -1.00048937e+01 -1.00033030e+01 -1.00007456e+01
 -9.99958202e+00 -9.99774340e+00 -8.85743472e-01 -8.53056802e-01
 -8.16672470e-01 -7.90084997e-01 -7.55616430e-01 -7.46850795e-01
 -7.35007128e-01 -7.24662901e-01 -7.10301554e-01 -6.76903805e-01
 -6.49257558e-01 -6.25171640e-01 -5.97864220e-01 -5.80705751e-01
 -5.65634806e-01 -5.50555533e-01 -5.43236606e-01 -5.19850052e-01
 -4.98177491e-01 -4.79021164e-01 -4.74944266e-01 -4.56435066e-01
 -4.45620622e-01 -4.26630576e-01 -4.07621162e-01 -4.05852037e-01
 -4.03294092e-01 -3.89849887e-01 -3.88070520e-01 -3.78038743e-01
 -3.65532572e-01 -3.61844582e-01 -3.56432816e-01 -3.47858986e-01
 -3.29270902e-01 -3.24832829e-01 -3.16825706e-01 -3.11128259e-01
 -3.03295282e-01 -2.93398408e-01 -2.84467824e-01 -2.64219758e-01
 -2.58180795e-01 -2.44804630e-01 -2.37517504e-01 -2.31665927e-01
 -2.23181272e-01 -2.04054583e-01 -1.97588432e-01 -1.51693300e-01
 -1.17610851e-01 -4.12545779e-03  2.55407781e-02  6.45117720e-02
  1.00248054e-01  1.23073936e-01  1.40650743e-01  1.50959933e-01
  1.91932283e-01  2.07894672e-01  2.36870529e-01  2.50084949e-01
  2.61750569e-01  2.91277079e-01  2.96435088e-01  3.07268404e-01
  3.15569435e-01  3.22252023e-01  3.26190407e-01  3.44912412e-01
  3.57946750e-01  3.69659730e-01  3.79325792e-01  4.04430458e-01
  4.11692178e-01  4.29790955e-01  4.37128229e-01  4.50746266e-01
  4.92659680e-01  4.94648512e-01  5.05651539e-01  5.46418100e-01
  5.59962916e-01  5.68222945e-01  5.87072074e-01  5.98819869e-01
  6.11693757e-01  6.27110064e-01  6.43666945e-01  6.65596746e-01
  6.85838659e-01  7.13090053e-01  7.30163634e-01  7.56279281e-01
  7.62054956e-01  7.92602368e-01  8.29042849e-01  8.46551930e-01
  8.88862338e-01  9.32726287e-01  9.71966478e-01  1.04502876e+00]
nelec by numeric integration = 145.99999275647386
    CPU time for vxc     37.32 sec, wall time     15.52 sec
E1 = -4123.3330579862995  Ecoul = 1906.6242314986307  Exc = -124.69161874589636
cycle= 10 E= -835.810208528585  delta_E= -9.3e-09  |g|= 5.54e-05  |ddm|= 0.000296
    CPU time for cycle= 10     37.74 sec, wall time     15.60 sec
  HOMO = -0.11761323892622  LUMO = -0.00412641458007052
  mo_energy =
[-1.00356368e+01 -1.00305139e+01 -1.00249181e+01 -1.00225520e+01
 -1.00220576e+01 -1.00218439e+01 -1.00215717e+01 -1.00190841e+01
 -1.00183039e+01 -1.00172579e+01 -1.00133603e+01 -1.00123018e+01
 -1.00115365e+01 -1.00114661e+01 -1.00098787e+01 -1.00096096e+01
 -1.00081139e+01 -1.00048972e+01 -1.00033011e+01 -1.00007522e+01
 -9.99957295e+00 -9.99775321e+00 -8.85748036e-01 -8.53058063e-01
 -8.16674484e-01 -7.90084950e-01 -7.55614936e-01 -7.46852191e-01
 -7.35010352e-01 -7.24664015e-01 -7.10303999e-01 -6.76905413e-01
 -6.49258184e-01 -6.25171554e-01 -5.97865307e-01 -5.80707294e-01
 -5.65638861e-01 -5.50557531e-01 -5.43237757e-01 -5.19850738e-01
 -4.98176092e-01 -4.79022367e-01 -4.74946298e-01 -4.56436514e-01
 -4.45619421e-01 -4.26632098e-01 -4.07623223e-01 -4.05852863e-01
 -4.03293589e-01 -3.89852802e-01 -3.88072902e-01 -3.78039019e-01
 -3.65532920e-01 -3.61845318e-01 -3.56434148e-01 -3.47861466e-01
 -3.29272834e-01 -3.24838891e-01 -3.16826680e-01 -3.11129090e-01
 -3.03299206e-01 -2.93400158e-01 -2.84468441e-01 -2.64221514e-01
 -2.58182300e-01 -2.44805381e-01 -2.37520450e-01 -2.31667457e-01
 -2.23182052e-01 -2.04056918e-01 -1.97590099e-01 -1.51694123e-01
 -1.17613239e-01 -4.12641458e-03  2.55406553e-02  6.45085855e-02
  1.00245819e-01  1.23070312e-01  1.40650336e-01  1.50959063e-01
  1.91931174e-01  2.07891680e-01  2.36867261e-01  2.50080681e-01
  2.61750744e-01  2.91275628e-01  2.96428586e-01  3.07268823e-01
  3.15569727e-01  3.22251174e-01  3.26189801e-01  3.44907824e-01
  3.57943485e-01  3.69657943e-01  3.79325034e-01  4.04427147e-01
  4.11690294e-01  4.29792665e-01  4.37126457e-01  4.50744678e-01
  4.92658806e-01  4.94650581e-01  5.05649711e-01  5.46417753e-01
  5.59962784e-01  5.68222616e-01  5.87068505e-01  5.98820188e-01
  6.11693552e-01  6.27107733e-01  6.43666421e-01  6.65592844e-01
  6.85836706e-01  7.13087289e-01  7.30165848e-01  7.56279241e-01
  7.62054527e-01  7.92598210e-01  8.29042784e-01  8.46551760e-01
  8.88862024e-01  9.32725847e-01  9.71961298e-01  1.04502449e+00]
nelec by numeric integration = 145.9999927564607
    CPU time for vxc     38.30 sec, wall time     15.80 sec
E1 = -4123.3331835092295  Ecoul = 1906.624358012939  Exc = -124.6916197381077
cycle= 11 E= -835.810208529418  delta_E= -8.33e-10  |g|= 3.38e-05  |ddm|= 0.000126
    CPU time for cycle= 11     38.62 sec, wall time     15.86 sec
  HOMO = -0.117612979787938  LUMO = -0.00412569395674243
  mo_energy =
[-1.00356380e+01 -1.00305131e+01 -1.00249150e+01 -1.00225478e+01
 -1.00220628e+01 -1.00218415e+01 -1.00215647e+01 -1.00190824e+01
 -1.00183031e+01 -1.00172528e+01 -1.00133596e+01 -1.00123052e+01
 -1.00115401e+01 -1.00114627e+01 -1.00098787e+01 -1.00096048e+01
 -1.00081138e+01 -1.00049000e+01 -1.00033015e+01 -1.00007497e+01
 -9.99957851e+00 -9.99774691e+00 -8.85746907e-01 -8.53056391e-01
 -8.16673667e-01 -7.90084437e-01 -7.55614921e-01 -7.46851623e-01
 -7.35009811e-01 -7.24662852e-01 -7.10303386e-01 -6.76904490e-01
 -6.49257727e-01 -6.25170915e-01 -5.97864420e-01 -5.80706609e-01
 -5.65637819e-01 -5.50556499e-01 -5.43237149e-01 -5.19850270e-01
 -4.98175851e-01 -4.79021254e-01 -4.74946073e-01 -4.56436004e-01
 -4.45619250e-01 -4.26631300e-01 -4.07622414e-01 -4.05852884e-01
 -4.03293283e-01 -3.89852508e-01 -3.88072399e-01 -3.78039216e-01
 -3.65533014e-01 -3.61844443e-01 -3.56432791e-01 -3.47860555e-01
 -3.29271883e-01 -3.24838559e-01 -3.16826006e-01 -3.11128775e-01
 -3.03297808e-01 -2.93399606e-01 -2.84468070e-01 -2.64220947e-01
 -2.58181795e-01 -2.44805313e-01 -2.37519775e-01 -2.31667090e-01
 -2.23181365e-01 -2.04055990e-01 -1.97589129e-01 -1.51693440e-01
 -1.17612980e-01 -4.12569396e-03  2.55413140e-02  6.45102974e-02
  1.00246776e-01  1.23071159e-01  1.40650596e-01  1.50959613e-01
  1.91931480e-01  2.07890499e-01  2.36868064e-01  2.50081935e-01
  2.61749981e-01  2.91276745e-01  2.96429806e-01  3.07268755e-01
  3.15569395e-01  3.22250948e-01  3.26190151e-01  3.44909214e-01
  3.57943905e-01  3.69658789e-01  3.79325848e-01  4.04428511e-01
  4.11691330e-01  4.29792824e-01  4.37126855e-01  4.50744978e-01
  4.92659153e-01  4.94650678e-01  5.05650516e-01  5.46418644e-01
  5.59963320e-01  5.68223765e-01  5.87069709e-01  5.98820417e-01
  6.11694312e-01  6.27109062e-01  6.43666699e-01  6.65594466e-01
  6.85838409e-01  7.13088497e-01  7.30165403e-01  7.56279654e-01
  7.62054925e-01  7.92599821e-01  8.29042994e-01  8.46551560e-01
  8.88863892e-01  9.32727085e-01  9.71962315e-01  1.04502484e+00]
nelec by numeric integration = 145.99999275646766
    CPU time for vxc     38.20 sec, wall time     15.79 sec
E1 = -4123.333100275826  Ecoul = 1906.6242740996747  Exc = -124.69161905864429
cycle= 12 E= -835.810208529816  delta_E= -3.97e-10  |g|= 7.54e-06  |ddm|= 5.38e-05
    CPU time for cycle= 12     38.55 sec, wall time     15.85 sec
  HOMO = -0.11761248106787  LUMO = -0.004125070620035
  mo_energy =
[-1.00356373e+01 -1.00305117e+01 -1.00249165e+01 -1.00225476e+01
 -1.00220616e+01 -1.00218414e+01 -1.00215639e+01 -1.00190809e+01
 -1.00183036e+01 -1.00172521e+01 -1.00133596e+01 -1.00123045e+01
 -1.00115370e+01 -1.00114622e+01 -1.00098776e+01 -1.00096033e+01
 -1.00081137e+01 -1.00048989e+01 -1.00033022e+01 -1.00007496e+01
 -9.99957712e+00 -9.99774772e+00 -8.85745821e-01 -8.53056346e-01
 -8.16673167e-01 -7.90084123e-01 -7.55614632e-01 -7.46851412e-01
 -7.35009204e-01 -7.24662587e-01 -7.10302933e-01 -6.76904117e-01
 -6.49257443e-01 -6.25170550e-01 -5.97864225e-01 -5.80706254e-01
 -5.65637172e-01 -5.50556319e-01 -5.43236904e-01 -5.19850062e-01
 -4.98175796e-01 -4.79021080e-01 -4.74945494e-01 -4.56435576e-01
 -4.45619082e-01 -4.26631020e-01 -4.07622101e-01 -4.05852513e-01
 -4.03293407e-01 -3.89851895e-01 -3.88071691e-01 -3.78038814e-01
 -3.65532636e-01 -3.61844325e-01 -3.56432663e-01 -3.47860119e-01
 -3.29271493e-01 -3.24837584e-01 -3.16825656e-01 -3.11128372e-01
 -3.03297447e-01 -2.93399146e-01 -2.84467831e-01 -2.64220571e-01
 -2.58181512e-01 -2.44804876e-01 -2.37519166e-01 -2.31666667e-01
 -2.23181315e-01 -2.04055534e-01 -1.97588767e-01 -1.51693143e-01
 -1.17612481e-01 -4.12507062e-03  2.55416395e-02  6.45107100e-02
  1.00247099e-01  1.23071824e-01  1.40650987e-01  1.50959861e-01
  1.91932004e-01  2.07891329e-01  2.36868518e-01  2.50082452e-01
  2.61750794e-01  2.91276871e-01  2.96430692e-01  3.07268962e-01
  3.15569304e-01  3.22251371e-01  3.26190363e-01  3.44909876e-01
  3.57944649e-01  3.69658712e-01  3.79325936e-01  4.04428763e-01
  4.11691348e-01  4.29792992e-01  4.37127349e-01  4.50745439e-01
  4.92659472e-01  4.94650764e-01  5.05650825e-01  5.46418924e-01
  5.59963683e-01  5.68224092e-01  5.87070113e-01  5.98820400e-01
  6.11694248e-01  6.27109359e-01  6.43667094e-01  6.65595097e-01
  6.85838639e-01  7.13088832e-01  7.30165677e-01  7.56280088e-01
  7.62055443e-01  7.92600551e-01  8.29043060e-01  8.46551880e-01
  8.88863814e-01  9.32727120e-01  9.71963587e-01  1.04502591e+00]
nelec by numeric integration = 145.99999275646468
    CPU time for vxc     38.27 sec, wall time     15.88 sec
E1 = -4123.333065287219  Ecoul = 1906.624238325985  Exc = -124.6916182735833
cycle= 13 E= -835.810208529837  delta_E= -2.18e-11  |g|= 3.23e-06  |ddm|= 1.46e-05
    CPU time for cycle= 13     38.68 sec, wall time     15.95 sec
  HOMO = -0.117612924565018  LUMO = -0.00412543707732779
  mo_energy =
[-1.00356378e+01 -1.00305128e+01 -1.00249158e+01 -1.00225483e+01
 -1.00220623e+01 -1.00218418e+01 -1.00215651e+01 -1.00190824e+01
 -1.00183030e+01 -1.00172531e+01 -1.00133591e+01 -1.00123049e+01
 -1.00115393e+01 -1.00114621e+01 -1.00098789e+01 -1.00096044e+01
 -1.00081138e+01 -1.00048994e+01 -1.00033014e+01 -1.00007497e+01
 -9.99957821e+00 -9.99774784e+00 -8.85746722e-01 -8.53056608e-01
 -8.16673600e-01 -7.90084496e-01 -7.55614994e-01 -7.46851587e-01
 -7.35009569e-01 -7.24662961e-01 -7.10303253e-01 -6.76904520e-01
 -6.49257789e-01 -6.25170905e-01 -5.97864521e-01 -5.80706592e-01
 -5.65637561e-01 -5.50556495e-01 -5.43237145e-01 -5.19850338e-01
 -4.98176035e-01 -4.79021360e-01 -4.74945973e-01 -4.56435947e-01
 -4.45619373e-01 -4.26631283e-01 -4.07622426e-01 -4.05852725e-01
 -4.03293408e-01 -3.89852310e-01 -3.88072248e-01 -3.78039073e-01
 -3.65532889e-01 -3.61844595e-01 -3.56432869e-01 -3.47860201e-01
 -3.29271766e-01 -3.24837963e-01 -3.16825965e-01 -3.11128569e-01
 -3.03297708e-01 -2.93399534e-01 -2.84468029e-01 -2.64220730e-01
 -2.58181721e-01 -2.44805224e-01 -2.37519572e-01 -2.31667025e-01
 -2.23181406e-01 -2.04055935e-01 -1.97589105e-01 -1.51693485e-01
 -1.17612925e-01 -4.12543708e-03  2.55413500e-02  6.45102385e-02
  1.00246887e-01  1.23071385e-01  1.40650638e-01  1.50959626e-01
  1.91931515e-01  2.07890881e-01  2.36868459e-01  2.50082329e-01
  2.61750555e-01  2.91276675e-01  2.96430485e-01  3.07268902e-01
  3.15569259e-01  3.22251084e-01  3.26190167e-01  3.44909515e-01
  3.57944159e-01  3.69658644e-01  3.79325932e-01  4.04428621e-01
  4.11691218e-01  4.29792626e-01  4.37126873e-01  4.50745036e-01
  4.92659155e-01  4.94650328e-01  5.05650589e-01  5.46418586e-01
  5.59963287e-01  5.68223777e-01  5.87069724e-01  5.98820218e-01
  6.11694040e-01  6.27108981e-01  6.43666739e-01  6.65594547e-01
  6.85838343e-01  7.13088584e-01  7.30165531e-01  7.56279519e-01
  7.62054844e-01  7.92599866e-01  8.29042965e-01  8.46551672e-01
  8.88863589e-01  9.32726929e-01  9.71962515e-01  1.04502506e+00]
nelec by numeric integration = 145.9999927564672
    CPU time for vxc     37.93 sec, wall time     15.73 sec
E1 = -4123.333109088064  Ecoul = 1906.6242832557853  Exc = -124.69161940253498
Extra cycle  E= -835.810208529834  delta_E= 3.64e-12  |g|= 4.59e-06  |ddm|= 1.06e-05
    CPU time for scf_cycle    584.15 sec, wall time    239.19 sec
    CPU time for SCF    584.15 sec, wall time    239.19 sec
converged SCF energy = -835.810208529834
nelec by numeric integration = 145.9999927564672
    CPU time for vxc     37.96 sec, wall time     15.71 sec
 ** Mulliken pop  **
pop of  0 C 1s            1.99092
pop of  0 C 2s            1.15504
pop of  0 C 2px           0.96954
pop of  0 C 2py           0.94685
pop of  0 C 2pz           0.94613
pop of  1 C 1s            1.99103
pop of  1 C 2s            1.14384
pop of  1 C 2px           0.99186
pop of  1 C 2py           0.95756
pop of  1 C 2pz           0.92876
pop of  2 C 1s            1.99137
pop of  2 C 2s            1.21475
pop of  2 C 2px           0.96696
pop of  2 C 2py           0.91909
pop of  2 C 2pz           0.94467
pop of  3 C 1s            1.99136
pop of  3 C 2s            1.21582
pop of  3 C 2px           0.99208
pop of  3 C 2py           0.92076
pop of  3 C 2pz           0.92367
pop of  4 C 1s            1.99130
pop of  4 C 2s            1.19441
pop of  4 C 2px           0.99710
pop of  4 C 2py           0.91872
pop of  4 C 2pz           0.98971
pop of  5 C 1s            1.99120
pop of  5 C 2s            1.18574
pop of  5 C 2px           0.98001
pop of  5 C 2py           0.94146
pop of  5 C 2pz           0.96773
pop of  6 C 1s            1.99071
pop of  6 C 2s            1.13925
pop of  6 C 2px           1.00222
pop of  6 C 2py           0.98994
pop of  6 C 2pz           0.96409
pop of  7 C 1s            1.99047
pop of  7 C 2s            1.12080
pop of  7 C 2px           1.03305
pop of  7 C 2py           0.99962
pop of  7 C 2pz           0.97049
pop of  8 C 1s            1.99062
pop of  8 C 2s            1.07849
pop of  8 C 2px           1.01129
pop of  8 C 2py           0.96429
pop of  8 C 2pz           0.98749
pop of  9 C 1s            1.99094
pop of  9 C 2s            1.00837
pop of  9 C 2px           1.02762
pop of  9 C 2py           0.99410
pop of  9 C 2pz           1.02246
pop of  10 C 1s           1.99114
pop of  10 C 2s           1.16394
pop of  10 C 2px          0.96153
pop of  10 C 2py          0.94555
pop of  10 C 2pz          0.95505
pop of  11 C 1s           1.99132
pop of  11 C 2s           1.12242
pop of  11 C 2px          1.01581
pop of  11 C 2py          0.94085
pop of  11 C 2pz          0.95867
pop of  12 C 1s           1.99039
pop of  12 C 2s           1.09360
pop of  12 C 2px          1.03060
pop of  12 C 2py          0.94233
pop of  12 C 2pz          0.96797
pop of  13 C 1s           1.99043
pop of  13 C 2s           1.09259
pop of  13 C 2px          0.98310
pop of  13 C 2py          0.97930
pop of  13 C 2pz          0.96377
pop of  14 C 1s           1.99128
pop of  14 C 2s           1.20908
pop of  14 C 2px          0.94978
pop of  14 C 2py          0.91975
pop of  14 C 2pz          0.95294
pop of  15 C 1s           1.99066
pop of  15 C 2s           1.14125
pop of  15 C 2px          1.02027
pop of  15 C 2py          0.94623
pop of  15 C 2pz          0.99666
pop of  16 C 1s           1.99044
pop of  16 C 2s           1.08449
pop of  16 C 2px          1.02314
pop of  16 C 2py          0.97669
pop of  16 C 2pz          0.94900
pop of  17 C 1s           1.99105
pop of  17 C 2s           1.17474
pop of  17 C 2px          0.94238
pop of  17 C 2py          0.92389
pop of  17 C 2pz          0.94109
pop of  18 C 1s           1.99061
pop of  18 C 2s           1.05084
pop of  18 C 2px          0.99253
pop of  18 C 2py          1.00659
pop of  18 C 2pz          1.03882
pop of  19 C 1s           1.99105
pop of  19 C 2s           1.14868
pop of  19 C 2px          0.99988
pop of  19 C 2py          0.96418
pop of  19 C 2pz          0.98398
pop of  20 C 1s           1.99076
pop of  20 C 2s           1.08583
pop of  20 C 2px          1.02241
pop of  20 C 2py          1.05438
pop of  20 C 2pz          0.98764
pop of  21 C 1s           1.99100
pop of  21 C 2s           1.12470
pop of  21 C 2px          0.98806
pop of  21 C 2py          1.00263
pop of  21 C 2pz          0.95199
pop of  22 H 1s           0.93189
pop of  23 H 1s           0.93082
pop of  24 H 1s           0.90793
pop of  25 H 1s           0.91734
pop of  26 H 1s           0.90907
pop of  27 H 1s           0.90604
pop of  28 H 1s           0.95142
pop of  29 H 1s           0.95222
pop of  30 H 1s           0.93469
pop of  31 H 1s           0.91206
pop of  32 H 1s           0.91903
pop of  33 H 1s           0.91492
pop of  34 H 1s           0.87335
pop of  35 H 1s           0.94170
 ** Mulliken atomic charges  **
charge of    0C =     -0.00848
charge of    1C =     -0.01305
charge of    2C =     -0.03683
charge of    3C =     -0.04370
charge of    4C =     -0.09124
charge of    5C =     -0.06615
charge of    6C =     -0.08620
charge of    7C =     -0.11443
charge of    8C =     -0.03218
charge of    9C =     -0.04350
charge of   10C =     -0.01721
charge of   11C =     -0.02906
charge of   12C =     -0.02490
charge of   13C =     -0.00919
charge of   14C =     -0.02283
charge of   15C =     -0.09507
charge of   16C =     -0.02375
charge of   17C =      0.02685
charge of   18C =     -0.07939
charge of   19C =     -0.08777
charge of   20C =     -0.14102
charge of   21C =     -0.05838
charge of   22H =      0.06811
charge of   23H =      0.06918
charge of   24H =      0.09207
charge of   25H =      0.08266
charge of   26H =      0.09093
charge of   27H =      0.09396
charge of   28H =      0.04858
charge of   29H =      0.04778
charge of   30H =      0.06531
charge of   31H =      0.08794
charge of   32H =      0.08097
charge of   33H =      0.08508
charge of   34H =      0.12665
charge of   35H =      0.05830
Dipole moment(X, Y, Z, Debye): -0.15218,  0.20113,  0.23989
nelec by numeric integration = 145.9999927564672
    CPU time for vxc     37.61 sec, wall time     15.72 sec
E1 = -4123.333109088064  Ecoul = 1906.6242832557846  Exc = -124.69161940253498
nelec by numeric integration = 145.9999927564672
    CPU time for vxc     38.13 sec, wall time     15.78 sec
E1 = -4123.333109088064  Ecoul = 1906.6242832557843  Exc = -124.69161940253498
