System: uname_result(system='Linux', node='cosmopc18', release='5.15.0-97-generic', version='#107-Ubuntu SMP Wed Feb 7 13:26:48 UTC 2024', machine='x86_64')  Threads 4
Python 3.11.8 (main, Feb 26 2024, 21:39:34) [GCC 11.2.0]
numpy 1.26.4  scipy 1.11.4
Date: Tue Apr  9 11:41:07 2024
PySCF version 2.3.0
PySCF path  /home/saade/miniconda3/envs/tutorial/lib/python3.11/site-packages/pyscf

[ENV] PYSCFAD_BACKEND torch
[CONFIG] conf_file None
[INPUT] verbose = 5
[INPUT] max_memory = 4000 
[INPUT] num. atoms = 36
[INPUT] num. electrons = 146
[INPUT] charge = 0
[INPUT] spin (= nelec alpha-beta = 2S) = 0
[INPUT] symmetry False subgroup None
[INPUT] Mole.unit = angstrom
[INPUT] Symbol           X                Y                Z      unit          X                Y                Z       unit  Magmom
[INPUT]  1 C      0.036709000000   3.649046000000   0.805452000000 AA    0.069369956307   6.895697555940   1.522083686483 Bohr   0.0
[INPUT]  2 C      0.043837000000   3.473690000000  -0.741862000000 AA    0.082839924123   6.564322741640  -1.401916002222 Bohr   0.0
[INPUT]  3 C      0.039839000000   4.808216000000   1.571628000000 AA    0.075284799077   9.086211387752   2.969946489698 Bohr   0.0
[INPUT]  4 C     -0.080838000000   2.481306000000   1.317162000000 AA   -0.152761680458   4.688988771240   2.489075441684 Bohr   0.0
[INPUT]  5 C     -0.059731000000   5.089418000000  -1.341811000000 AA   -0.112875231146   9.617606153432  -2.535655300929 Bohr   0.0
[INPUT]  6 C      0.008159000000   2.454415000000  -1.454169000000 AA    0.015418275450   4.638172146024  -2.747981148833 Bohr   0.0
[INPUT]  7 C     -0.203482000000   6.150439000000  -0.717904000000 AA   -0.384525251279  11.622645255844  -1.356641943730 Bohr   0.0
[INPUT]  8 C      0.033480000000   6.143935000000   0.539498000000 AA    0.063268030650  11.610354477130   1.019503464751 Bohr   0.0
[INPUT]  9 C     -0.022250000000   1.410798000000   0.740742000000 AA   -0.042046406272   2.666021837084   1.399799508963 Bohr   0.0
[INPUT] 10 C      0.079830000000   1.328747000000  -0.894315000000 AA    0.150856836524   2.510967918837  -1.690010419090 Bohr   0.0
[INPUT] 11 C      0.106915000000   0.146770000000   1.419316000000 AA    0.202040068608   0.277355103302   2.682118524213 Bohr   0.0
[INPUT] 12 C      0.029103000000   0.204277000000  -1.392460000000 AA    0.054996699403   0.386027583548  -2.631368039412 Bohr   0.0
[INPUT] 13 C      0.083510000000  -1.176269000000   0.811127000000 AA    0.157811028662  -2.222826258816   1.532807882240 Bohr   0.0
[INPUT] 14 C     -0.000985000000  -1.226019000000  -0.759169000000 AA   -0.001861380233  -2.316840133513  -1.434621492260 Bohr   0.0
[INPUT] 15 C      0.055325000000  -2.583945000000   1.450817000000 AA    0.104549097842  -4.882948370939   2.741646786863 Bohr   0.0
[INPUT] 16 C     -0.010995000000  -2.403239000000  -1.413751000000 AA   -0.020777538740  -4.541463521874  -2.671602198330 Bohr   0.0
[INPUT] 17 C     -0.127806000000  -3.756976000000   0.763010000000 AA   -0.241518337076  -7.099655696564   1.441879930304 Bohr   0.0
[INPUT] 18 C      0.113375000000  -3.544792000000  -0.772982000000 AA    0.214247699373  -6.698686048549  -1.460724279219 Bohr   0.0
[INPUT] 19 C      0.048935000000  -4.979053000000   1.412767000000 AA    0.092473747906  -9.409046529694   2.669742707823 Bohr   0.0
[INPUT] 20 C      0.204123000000  -5.015788000000  -1.466347000000 AA    0.385736565725  -9.478465618880  -2.770994233578 Bohr   0.0
[INPUT] 21 C      0.032648000000  -5.902868000000   0.740650000000 AA    0.061695778515 -11.154803869459   1.399625654159 Bohr   0.0
[INPUT] 22 C     -0.058345000000  -6.167823000000  -0.664358000000 AA   -0.110256070738 -11.655496254793  -1.255454668664 Bohr   0.0
[INPUT] 23 H     -0.105541000000   5.036939000000   2.388212000000 AA   -0.199443584913   9.518435216141   4.513066607400 Bohr   0.0
[INPUT] 24 H     -0.037909000000   2.574331000000   2.519118000000 AA   -0.071637627656   4.864780543978   4.760443095462 Bohr   0.0
[INPUT] 25 H     -0.107274000000   4.783590000000  -2.489731000000 AA   -0.202718480287   9.039674992208  -4.704909713839 Bohr   0.0
[INPUT] 26 H     -0.027946000000   2.273086000000  -2.475877000000 AA   -0.052810286277   4.295509997583  -4.678729448110 Bohr   0.0
[INPUT] 27 H     -0.058099000000   6.977032000000  -1.179992000000 AA   -0.109791198111  13.184679642326  -2.229861709178 Bohr   0.0
[INPUT] 28 H      0.049511000000   7.166806000000   1.447794000000 AA    0.093562230153  13.543300527890   2.735934144789 Bohr   0.0
[INPUT] 29 H     -0.001635000000  -0.051879000000   2.679662000000 AA   -0.003089702214  -0.098037101616   5.063827286404 Bohr   0.0
[INPUT] 30 H     -0.042363000000  -0.066852000000  -2.387272000000 AA   -0.080054467815  -0.126331970879  -4.511290264843 Bohr   0.0
[INPUT] 31 H      0.133761000000  -2.568318000000   2.548637000000 AA    0.252771656148  -4.853417620791   4.816225920933 Bohr   0.0
[INPUT] 32 H      0.023414000000  -2.472390000000  -2.563008000000 AA    0.044246047481  -4.672139973113  -4.843383175069 Bohr   0.0
[INPUT] 33 H     -0.050990000000  -4.941319000000   2.457115000000 AA   -0.096357135092  -9.337739604110   4.643274406561 Bohr   0.0
[INPUT] 34 H     -0.116664000000  -4.909273000000  -2.608453000000 AA   -0.220463008596  -9.277181440722  -4.929261778800 Bohr   0.0
[INPUT] 35 H     -0.027839000000  -7.100147000000   1.220415000000 AA   -0.052608085582 -13.417333274152   2.306250108311 Bohr   0.0
[INPUT] 36 H      0.006460000000  -7.056135000000  -1.132190000000 AA    0.012207630765 -13.334162647958  -2.139529020971 Bohr   0.0
[INPUT] ---------------- BASIS SET ---------------- 
[INPUT] l, kappa, [nprim/nctr], expnt,             c_1 c_2 ...
[INPUT] H
[INPUT] 0    0    [3    /1   ]  3.42525091        0.15432897
                                0.62391373        0.53532814
                                0.1688554         0.44463454
[INPUT] C
[INPUT] 0    0    [3    /1   ]  71.616837         0.15432897
                                13.045096         0.53532814
                                3.5305122         0.44463454
[INPUT] 0    0    [3    /1   ]  2.9412494         -0.09996723
                                0.6834831         0.39951283
                                0.2222899         0.70011547
[INPUT] 1    0    [3    /1   ]  2.9412494         0.15591627
                                0.6834831         0.60768372
                                0.2222899         0.39195739

nuclear repulsion = 1490.63235659898
number of shells = 80
number of NR pGTOs = 372
number of NR cGTOs = 124
basis = sto3g
ecp = {}
CPU time:     17471.52
atom C rad-grids = 99, ang-grids = [ 50  50  50  50  50  50  50  50  50  50  50  50  50  50  50  50  50  50
  50  50  50  50  50  50  50  50  50  50  50  50  50  86  86  86  86  86
  86  86  86  86  86  86  86 434 434 434 434 434 434 434 434 434 590 590
 590 590 590 590 590 590 590 590 590 590 590 590 590 590 590 590 590 590
 590 590 590 590 590 590 590 434 434 434 434 434 434 434 434 434 434 434
 434 434 434 434 434 434 434 434 434]
atom H rad-grids = 99, ang-grids = [ 50  50  50  50  50  50  50  50  50  50  50  50  50  50  50  50  50  50
  50  50  50  50  50  50  50  50  50  50  86  86  86  86  86  86  86 434
 434 434 434 434 434 434 434 590 590 590 590 590 590 590 590 590 590 590
 590 590 590 590 590 590 590 590 590 590 590 590 590 590 590 434 434 434
 434 434 434 434 434 434 434 434 434 434 434 434 434 434 434 434 434 434
 434 434 434 434 434 434 434 434 434]
tot_boxes 5270, boxes in each direction [ 8 29 15]
Padding 0 grids
tot grids = 1157832


******** <class 'pyscf.dft.rks.RKS'> ********
method = RKS
initial guess = minao
damping factor = 0
level_shift factor = 0
DIIS = <class 'pyscf.scf.diis.CDIIS'>
diis_start_cycle = 1
diis_space = 8
SCF conv_tol = 1e-10
SCF conv_tol_grad = None
SCF max_cycles = 50
direct_scf = True
direct_scf_tol = 1e-13
chkfile to save SCF result = /home/saade/mlelec/tutorials/tmpamp3aipi
max_memory 4000 MB (current use 637 MB)
XC library pyscf.dft.libxc version 6.1.0
    S. Lehtola, C. Steigemann, M. J.T. Oliveira, and M. A.L. Marques.,  SoftwareX 7, 1–5 (2018)
XC functionals = b3lypg
    P. J. Stephens, F. J. Devlin, C. F. Chabalowski, and M. J. Frisch.,  J. Phys. Chem. 98, 11623 (1994)
radial grids: 
    Treutler-Ahlrichs [JCP 102, 346 (1995); DOI:10.1063/1.469408] (M4) radial grids
    
becke partition: Becke, JCP 88, 2547 (1988); DOI:10.1063/1.454033
pruning grids: <function nwchem_prune at 0x7f9db5616ca0>
grids dens level: 3
symmetrized grids: False
atomic radii adjust function: <function treutler_atomic_radii_adjust at 0x7f9db5617380>
User specified grid scheme (99, 590)
small_rho_cutoff = 1e-07
Set gradient conv threshold to 1e-05
Initial guess from minao.
nelec by numeric integration = 145.26693485915536
    CPU time for vxc     36.81 sec, wall time     15.45 sec
E1 = -4081.039679740667  Ecoul = 1875.0111653906285  Exc = -126.06426842196038
init E= -841.46042617302
cond(S) = 25.490231051654607
    CPU time for initialize scf     46.45 sec, wall time     17.78 sec
  HOMO = -0.20058808634071  LUMO = -0.14568485969964
  mo_energy =
[-1.01516817e+01 -1.01477924e+01 -1.01444289e+01 -1.01430566e+01
 -1.01425014e+01 -1.01256000e+01 -1.01221859e+01 -1.01212332e+01
 -1.01144095e+01 -1.01117741e+01 -1.01030256e+01 -1.00978974e+01
 -1.00957705e+01 -1.00906532e+01 -1.00903524e+01 -1.00890508e+01
 -1.00872772e+01 -1.00865458e+01 -1.00835958e+01 -1.00796525e+01
 -1.00708490e+01 -1.00646007e+01 -1.11784572e+00 -1.07000142e+00
 -1.03143223e+00 -1.00891747e+00 -9.99435149e-01 -9.38694813e-01
 -9.12709446e-01 -8.93760805e-01 -8.57443724e-01 -8.47463583e-01
 -8.00015647e-01 -7.53402998e-01 -7.23570447e-01 -7.10400208e-01
 -6.81924374e-01 -6.59990314e-01 -6.54734782e-01 -6.48047454e-01
 -6.17640761e-01 -5.92977585e-01 -5.74093603e-01 -5.61366799e-01
 -5.43459623e-01 -5.28614243e-01 -5.18726840e-01 -5.01609336e-01
 -5.00166882e-01 -4.90133174e-01 -4.88318802e-01 -4.66135479e-01
 -4.63334852e-01 -4.55079189e-01 -4.54450332e-01 -4.41045128e-01
 -4.35492444e-01 -4.17737604e-01 -4.05675492e-01 -4.01524095e-01
 -3.92649949e-01 -3.80640780e-01 -3.50046363e-01 -3.34528726e-01
 -3.31290417e-01 -3.28500303e-01 -3.20140403e-01 -3.08276554e-01
 -2.91386619e-01 -2.86109161e-01 -2.68615589e-01 -2.57319373e-01
 -2.00588086e-01 -1.45684860e-01 -9.34447525e-02 -7.55766933e-02
 -5.81919939e-02 -1.96345672e-02  4.67863083e-03  5.16638010e-02
  6.10196321e-02  7.36162415e-02  8.78762806e-02  9.63114220e-02
  1.15016379e-01  1.19199167e-01  1.34838850e-01  1.40811140e-01
  1.46916154e-01  1.58513518e-01  1.83313787e-01  1.88139396e-01
  2.01121648e-01  2.17946109e-01  2.29415841e-01  2.40938563e-01
  2.47529536e-01  2.59389662e-01  2.91921838e-01  3.09809531e-01
  3.29893201e-01  3.57446176e-01  3.85858933e-01  3.99010992e-01
  4.07793487e-01  4.17227936e-01  4.53522307e-01  4.62072074e-01
  4.76394086e-01  5.02076203e-01  5.37918988e-01  5.47585255e-01
  5.77652571e-01  5.99276650e-01  6.10076866e-01  6.38572882e-01
  6.68177527e-01  6.74288470e-01  6.90391919e-01  7.36832885e-01
  7.65359698e-01  8.13821212e-01  8.62082037e-01  9.14006383e-01]
nelec by numeric integration = 146.00000427717944
    CPU time for vxc     37.81 sec, wall time     15.69 sec
E1 = -4096.508505212964  Ecoul = 1895.0559227583253  Exc = -124.71709842684672
cycle= 1 E= -835.537324282507  delta_E= 5.92  |g|= 0.331  |ddm|=  9.3
    CPU time for cycle= 1     38.05 sec, wall time     15.73 sec
  HOMO = -0.0872146127721889  LUMO = -0.00536544980568614
  mo_energy =
[-1.00957177e+01 -1.00706765e+01 -1.00355393e+01 -1.00212736e+01
 -1.00191823e+01 -1.00180612e+01 -1.00052232e+01 -9.99854157e+00
 -9.98848137e+00 -9.98531005e+00 -9.98394142e+00 -9.98001095e+00
 -9.97735927e+00 -9.96526615e+00 -9.96041939e+00 -9.95973630e+00
 -9.95675165e+00 -9.95407514e+00 -9.94728333e+00 -9.92470606e+00
 -9.90098279e+00 -9.89818070e+00 -8.52358669e-01 -8.17465431e-01
 -8.12603786e-01 -7.66423064e-01 -7.43480054e-01 -7.22271235e-01
 -7.08745370e-01 -6.86009103e-01 -6.73562297e-01 -6.56748615e-01
 -6.36292128e-01 -6.07846487e-01 -5.69869931e-01 -5.61595751e-01
 -5.43129717e-01 -5.27750471e-01 -5.08379513e-01 -5.02889311e-01
 -5.00791683e-01 -4.72459634e-01 -4.49267167e-01 -4.42535307e-01
 -4.22738572e-01 -4.13846317e-01 -4.03112585e-01 -3.95814802e-01
 -3.90458913e-01 -3.78546780e-01 -3.70053095e-01 -3.64158972e-01
 -3.52522109e-01 -3.47708748e-01 -3.34556052e-01 -3.27325923e-01
 -3.18898580e-01 -3.12438231e-01 -2.89984648e-01 -2.72759102e-01
 -2.70770271e-01 -2.59349403e-01 -2.51998625e-01 -2.48468699e-01
 -2.41078348e-01 -2.22374813e-01 -2.13058793e-01 -2.04640165e-01
 -1.81011161e-01 -1.71592885e-01 -1.47256356e-01 -1.39841329e-01
 -8.72146128e-02 -5.36544981e-03  5.03128844e-02  8.35013599e-02
  9.87550510e-02  1.32686041e-01  1.58806423e-01  1.73500106e-01
  2.00346254e-01  2.27038455e-01  2.44136462e-01  2.49378815e-01
  2.57577104e-01  2.68482393e-01  2.75938465e-01  2.92812179e-01
  3.03890910e-01  3.21229359e-01  3.27985352e-01  3.40133877e-01
  3.62244931e-01  3.71991662e-01  3.82064994e-01  3.84771391e-01
  3.95431156e-01  4.25210800e-01  4.43710214e-01  4.66476617e-01
  4.87525625e-01  5.09823138e-01  5.48112862e-01  5.54090588e-01
  5.71020702e-01  5.86714285e-01  5.93902496e-01  6.31373151e-01
  6.40920798e-01  6.52596944e-01  6.60374009e-01  6.99255739e-01
  7.31570657e-01  7.49091248e-01  7.80485778e-01  7.97880442e-01
  8.28361755e-01  8.33455461e-01  8.55450788e-01  9.17194407e-01
  9.50822528e-01  1.02296013e+00  1.07627498e+00  1.09988200e+00]
nelec by numeric integration = 146.00000429834895
    CPU time for vxc     38.41 sec, wall time     15.80 sec
E1 = -4089.389357785207  Ecoul = 1887.8866759047  Exc = -124.56929693124572
cycle= 2 E= -835.439622212773  delta_E= 0.0977  |g|= 0.592  |ddm|=  1.5
    CPU time for cycle= 2     38.93 sec, wall time     15.88 sec
  HOMO = -0.0921037667460796  LUMO = -0.00854635366058804
  mo_energy =
[-1.00250958e+01 -1.00226922e+01 -1.00221160e+01 -1.00199404e+01
 -1.00196072e+01 -1.00192856e+01 -1.00181757e+01 -1.00130027e+01
 -1.00121784e+01 -1.00117528e+01 -1.00117316e+01 -1.00094255e+01
 -1.00065010e+01 -1.00036058e+01 -1.00031684e+01 -1.00012672e+01
 -1.00008563e+01 -9.99287675e+00 -9.98728551e+00 -9.98188704e+00
 -9.96622222e+00 -9.96418168e+00 -8.59611416e-01 -8.36555941e-01
 -7.99805769e-01 -7.87078623e-01 -7.84128326e-01 -7.43125532e-01
 -7.30620447e-01 -7.12273723e-01 -6.92529711e-01 -6.76915281e-01
 -6.44614147e-01 -6.03168684e-01 -5.84762871e-01 -5.71333613e-01
 -5.49909493e-01 -5.37857444e-01 -5.33566153e-01 -5.25166588e-01
 -5.00405941e-01 -4.84864928e-01 -4.67169563e-01 -4.50869266e-01
 -4.34889046e-01 -4.26864878e-01 -4.17481491e-01 -4.11566591e-01
 -3.97397162e-01 -3.94394159e-01 -3.79481389e-01 -3.72501898e-01
 -3.67805217e-01 -3.56142731e-01 -3.54773221e-01 -3.46714446e-01
 -3.40264177e-01 -3.18620130e-01 -3.04597341e-01 -2.91000278e-01
 -2.88026829e-01 -2.83408598e-01 -2.65452236e-01 -2.54592173e-01
 -2.43941171e-01 -2.37956810e-01 -2.29016745e-01 -2.21501381e-01
 -1.97223710e-01 -1.90069105e-01 -1.69512812e-01 -1.57600933e-01
 -9.21037667e-02 -8.54635366e-03  4.27397570e-02  5.91508958e-02
  8.04729973e-02  1.22652912e-01  1.43857028e-01  2.03943066e-01
  2.07546127e-01  2.24404828e-01  2.28357870e-01  2.41257715e-01
  2.46555298e-01  2.57993863e-01  2.76400056e-01  2.82768779e-01
  2.84178173e-01  2.88902796e-01  3.26166306e-01  3.43220440e-01
  3.45520024e-01  3.59843699e-01  3.65381167e-01  3.67151249e-01
  3.83497285e-01  4.04008198e-01  4.23677162e-01  4.50044459e-01
  4.56304574e-01  4.87630617e-01  5.26393437e-01  5.37526039e-01
  5.45200827e-01  5.51728510e-01  5.74774646e-01  5.99300179e-01
  6.21427360e-01  6.34584016e-01  6.75926696e-01  6.85769049e-01
  7.21429815e-01  7.45190839e-01  7.54859824e-01  7.89465191e-01
  8.15717033e-01  8.30606239e-01  8.58565959e-01  9.02266268e-01
  9.08769220e-01  9.73097301e-01  1.02563875e+00  1.07098755e+00]
nelec by numeric integration = 146.00000425800428
    CPU time for vxc     37.86 sec, wall time     15.65 sec
E1 = -4092.7191719657567  Ecoul = 1891.1173008266178  Exc = -124.58248750022292
cycle= 3 E= -835.552002040382  delta_E= -0.112  |g|= 0.276  |ddm|= 1.41
    CPU time for cycle= 3     38.20 sec, wall time     15.71 sec
  HOMO = -0.102076691452447  LUMO = -0.0214809996637235
  mo_energy =
[-10.04072364 -10.0353903  -10.03124623 -10.02954786 -10.02905676
 -10.02819258 -10.02620715 -10.02362962 -10.02265653 -10.02197837
 -10.01842258 -10.0157362  -10.01565033 -10.01472812 -10.01088162
 -10.00883893 -10.00720322 -10.00329345  -9.99931942  -9.99801146
  -9.99758801  -9.99754957  -0.87351783  -0.84078195  -0.82502706
  -0.80300415  -0.78999725  -0.74858429  -0.72954409  -0.71758121
  -0.69083913  -0.67991402  -0.64934904  -0.61736438  -0.58908797
  -0.58666684  -0.55631755  -0.53893532  -0.53664771  -0.52923814
  -0.51600689  -0.48902336  -0.46943333  -0.46019712  -0.44784195
  -0.4310917   -0.42097899  -0.41368     -0.4119698   -0.39493474
  -0.38283028  -0.37689213  -0.3726815   -0.36973005  -0.35907273
  -0.35055684  -0.34344944  -0.32390781  -0.3115321   -0.30473563
  -0.29606999  -0.29202136  -0.2649871   -0.25794859  -0.25257077
  -0.24143044  -0.23217671  -0.22212157  -0.21274085  -0.194689
  -0.16909602  -0.16328564  -0.10207669  -0.021481     0.03677635
   0.05844279   0.07527212   0.11629253   0.14353132   0.19034312
   0.19650458   0.21085309   0.21412885   0.23148716   0.24073772
   0.24483121   0.26654513   0.2790341    0.28181235   0.29359664
   0.32767734   0.33284593   0.34310198   0.35159905   0.36523917
   0.37191618   0.37579138   0.3938939    0.42676646   0.44808844
   0.45722952   0.4888146    0.5160124    0.53953465   0.54068718
   0.55193753   0.57819945   0.60120866   0.61874789   0.63512434
   0.65920349   0.67958731   0.71747897   0.73642879   0.75030111
   0.77753209   0.80110924   0.81371343   0.8352341    0.87338221
   0.899399     0.96104693   1.00819745   1.06046053]
nelec by numeric integration = 146.00000430279002
    CPU time for vxc     37.98 sec, wall time     15.67 sec
E1 = -4092.835718220372  Ecoul = 1891.2282266222078  Exc = -124.60543771375727
cycle= 4 E= -835.580572712942  delta_E= -0.0286  |g|= 0.0843  |ddm|= 0.612
    CPU time for cycle= 4     38.78 sec, wall time     15.78 sec
  HOMO = -0.103832763938182  LUMO = -0.0230386306191077
  mo_energy =
[-10.03509446 -10.03046539 -10.02853356 -10.02771707 -10.02756399
 -10.0261782  -10.02502125 -10.02335615 -10.0230748  -10.02074202
 -10.02014145 -10.01993251 -10.0196297  -10.018412   -10.01782005
 -10.01699996 -10.01551508 -10.01258069 -10.01182863 -10.01168817
 -10.00226394  -9.99819635  -0.86744976  -0.84547341  -0.82215152
  -0.80051636  -0.79312854  -0.74929005  -0.73541018  -0.71652583
  -0.69611588  -0.68399332  -0.64965332  -0.61831777  -0.59047412
  -0.58629106  -0.55631664  -0.54249902  -0.53668056  -0.53185019
  -0.51450336  -0.4900001   -0.47147837  -0.45880467  -0.44621446
  -0.43289048  -0.42277819  -0.41434048  -0.4100616   -0.39755625
  -0.38195824  -0.37857156  -0.37376352  -0.37067223  -0.3611367
  -0.35564691  -0.34763791  -0.32216735  -0.31790127  -0.30319717
  -0.29750469  -0.29324764  -0.27135984  -0.2584238   -0.25479117
  -0.24425684  -0.23471514  -0.22754664  -0.21065441  -0.19673245
  -0.17414855  -0.16639193  -0.10383276  -0.02303863   0.03358684
   0.05412244   0.07307864   0.11372245   0.13716771   0.19076402
   0.19972455   0.21342033   0.21383979   0.23195681   0.23981691
   0.24632929   0.26757081   0.27331139   0.2769517    0.28819131
   0.32248084   0.33562362   0.34074992   0.35083281   0.35963346
   0.36294256   0.3740144    0.39261299   0.42188926   0.44683809
   0.45504737   0.48453403   0.52168818   0.5342249    0.5432539
   0.54795252   0.57371877   0.59738332   0.61840695   0.62949258
   0.66160862   0.67094868   0.71412204   0.73635421   0.74697771
   0.77888505   0.80269486   0.80779952   0.84208734   0.87704402
   0.90250351   0.96499771   1.01575976   1.05841167]
nelec by numeric integration = 146.0000042745066
    CPU time for vxc     38.08 sec, wall time     15.68 sec
E1 = -4093.080008238073  Ecoul = 1891.4718902705695  Exc = -124.60734896580615
cycle= 5 E= -835.58311033433  delta_E= -0.00254  |g|= 0.0306  |ddm|= 0.203
    CPU time for cycle= 5     38.47 sec, wall time     15.75 sec
  HOMO = -0.103341686654951  LUMO = -0.0216057849115136
  mo_energy =
[-10.03304037 -10.02967261 -10.02937765 -10.02706366 -10.02705967
 -10.02398092 -10.02308549 -10.02297501 -10.02154206 -10.0199259
 -10.01960388 -10.01939065 -10.01753718 -10.0168213  -10.01572262
 -10.01232965 -10.0095751  -10.00943985 -10.00830611 -10.00824906
 -10.00559857  -9.99978353  -0.86813321  -0.84276293  -0.82185989
  -0.79939363  -0.79151367  -0.74796832  -0.73347738  -0.71694532
  -0.69438464  -0.68192495  -0.6490596   -0.61738534  -0.58944979
  -0.58598054  -0.55586695  -0.54008984  -0.53613208  -0.53057908
  -0.51422222  -0.48891202  -0.47055704  -0.45839132  -0.44618765
  -0.43198442  -0.42182412  -0.41320419  -0.41074626  -0.39598769
  -0.38082138  -0.37833977  -0.37210111  -0.37116628  -0.35998907
  -0.35341435  -0.3456008   -0.32172582  -0.31523786  -0.30233283
  -0.29634899  -0.29225307  -0.26910005  -0.25875613  -0.25463992
  -0.24288513  -0.23349336  -0.2258185   -0.21109616  -0.1961939
  -0.17247885  -0.16542538  -0.10334169  -0.02160578   0.03470011
   0.05587451   0.0736043    0.11489265   0.13967717   0.19154754
   0.19973545   0.21320099   0.21465628   0.23250513   0.24028029
   0.24552195   0.26666394   0.27565928   0.27915467   0.29042975
   0.32519006   0.33533598   0.34234242   0.35112971   0.36116575
   0.36617648   0.37507463   0.39372896   0.42431151   0.44827334
   0.45513936   0.48698823   0.5207542    0.53589115   0.54350824
   0.54949576   0.57431732   0.59950109   0.61822209   0.63173902
   0.66234858   0.67473528   0.71590759   0.73669326   0.7492023
   0.77897066   0.80346866   0.8102245    0.84168952   0.87721994
   0.90129604   0.96503158   1.01476236   1.06098006]
nelec by numeric integration = 146.0000042850596
    CPU time for vxc     37.98 sec, wall time     15.73 sec
E1 = -4092.9234996901673  Ecoul = 1891.312104554216  Exc = -124.60441177244452
cycle= 6 E= -835.583450309417  delta_E= -0.00034  |g|= 0.0113  |ddm|= 0.0692
    CPU time for cycle= 6     38.35 sec, wall time     15.79 sec
  HOMO = -0.103143898304572  LUMO = -0.0212273836358046
  mo_energy =
[-10.03234647 -10.03015635 -10.02761221 -10.02683689 -10.02430759
 -10.02400731 -10.02396028 -10.02315032 -10.02169521 -10.01930369
 -10.01856552 -10.01834388 -10.01792488 -10.01710588 -10.01319766
 -10.01301761 -10.0112007  -10.00917181 -10.00891344 -10.00879254
 -10.00194965 -10.00080056  -0.8678268   -0.84266488  -0.82111212
  -0.79933378  -0.79158722  -0.74799175  -0.7333182   -0.71628179
  -0.69414784  -0.68202251  -0.64865869  -0.61701722  -0.58918295
  -0.5854888   -0.55557062  -0.54023359  -0.53613538  -0.53055319
  -0.51380101  -0.4888856   -0.47023881  -0.45838081  -0.44566034
  -0.43177145  -0.42155803  -0.41314652  -0.41022295  -0.39625066
  -0.38075281  -0.37822983  -0.37225352  -0.37030928  -0.35984965
  -0.35350728  -0.34578965  -0.32126731  -0.31580111  -0.30219214
  -0.29640198  -0.29224377  -0.26910695  -0.25808054  -0.2542065
  -0.24276738  -0.23347569  -0.22569647  -0.21057612  -0.19583413
  -0.17231402  -0.16518366  -0.1031439   -0.02122738   0.03519073
   0.05596671   0.07410983   0.11513096   0.13964215   0.19189419
   0.19978088   0.21367915   0.21466385   0.23274508   0.24054845
   0.24633008   0.26811319   0.27553991   0.27923742   0.28977767
   0.32489839   0.33562365   0.34258771   0.35150693   0.36120382
   0.36596709   0.37538427   0.39379273   0.42392397   0.44795208
   0.45573944   0.48655992   0.52100825   0.53617573   0.54360937
   0.54918621   0.57481417   0.59926832   0.61889777   0.63177417
   0.66271096   0.67435037   0.71620369   0.73736954   0.74906322
   0.77945215   0.80404477   0.81033402   0.8418769    0.87777912
   0.90229332   0.96521049   1.01487751   1.06114791]
nelec by numeric integration = 146.00000428222333
    CPU time for vxc     38.44 sec, wall time     15.76 sec
E1 = -4092.926772047311  Ecoul = 1891.3145698042758  Exc = -124.6036536683522
cycle= 7 E= -835.583499312408  delta_E= -4.9e-05  |g|= 0.0025  |ddm|= 0.0207
    CPU time for cycle= 7     38.76 sec, wall time     15.82 sec
  HOMO = -0.103133812767451  LUMO = -0.0211578680372799
  mo_energy =
[-10.03244015 -10.02986165 -10.02791204 -10.02724172 -10.02440553
 -10.02436966 -10.02359295 -10.02321479 -10.02185561 -10.0191298
 -10.01859278 -10.01835341 -10.01750723 -10.01697051 -10.01291228
 -10.01271001 -10.0106916  -10.00917304 -10.00915345 -10.0086076
 -10.00235398 -10.00026555  -0.86776576  -0.84279471  -0.82115517
  -0.79931054  -0.79152975  -0.74786441  -0.73326888  -0.7162893
  -0.69411881  -0.68191399  -0.64863774  -0.61698927  -0.58917489
  -0.58548492  -0.55553929  -0.54024122  -0.5360428   -0.53052812
  -0.51381053  -0.48884711  -0.47023521  -0.45833743  -0.44569543
  -0.4317648   -0.42157838  -0.41310756  -0.41024963  -0.39619973
  -0.38069863  -0.37814989  -0.37215333  -0.37035076  -0.35985228
  -0.35349494  -0.34569854  -0.32125922  -0.31561482  -0.30218954
  -0.29630436  -0.29217853  -0.26905458  -0.25813453  -0.25424924
  -0.24268543  -0.2333723   -0.22564313  -0.21056713  -0.19575035
  -0.17224833  -0.16514266  -0.10313381  -0.02115787   0.03523265
   0.05603295   0.07418587   0.11517074   0.13969905   0.19190089
   0.1998936    0.21367103   0.2147463    0.23276959   0.24047987
   0.24628049   0.26800595   0.27561048   0.27919216   0.28994357
   0.325012     0.33569999   0.3426267    0.35151958   0.36128064
   0.36606952   0.37541665   0.39389187   0.42398159   0.44808013
   0.45569217   0.48664422   0.52107251   0.53628696   0.54368371
   0.54935487   0.57488564   0.59941956   0.61882913   0.63177603
   0.66261481   0.67439993   0.71617613   0.73729827   0.74920463
   0.77950343   0.80398525   0.81031847   0.84198718   0.87775648
   0.90219469   0.96521932   1.01503282   1.06088364]
nelec by numeric integration = 146.00000428281683
    CPU time for vxc     37.74 sec, wall time     15.63 sec
E1 = -4092.9215837326014  Ecoul = 1891.3093806323288  Exc = -124.60365492688642
cycle= 8 E= -835.58350142818  delta_E= -2.12e-06  |g|= 0.000789  |ddm|= 0.00431
    CPU time for cycle= 8     38.09 sec, wall time     15.69 sec
  HOMO = -0.103172680430145  LUMO = -0.021155121245084
  mo_energy =
[-10.03243559 -10.02994105 -10.02783067 -10.02724727 -10.02449768
 -10.02435016 -10.02359924 -10.0230797  -10.02174879 -10.019223
 -10.01856857 -10.01835346 -10.01767529 -10.01706607 -10.01299503
 -10.01282827 -10.01083013 -10.00913071 -10.00908451 -10.00864238
 -10.00238651 -10.00037541  -0.86780878  -0.8427762   -0.82116016
  -0.79933493  -0.79156452  -0.74790377  -0.73326991  -0.71631495
  -0.69413971  -0.6819501   -0.64865454  -0.61700251  -0.58919266
  -0.58550557  -0.55556221  -0.54023558  -0.53607701  -0.53054196
  -0.51384347  -0.48887701  -0.47025118  -0.45835441  -0.44570736
  -0.43179082  -0.42157606  -0.41313222  -0.41026292  -0.3962043
  -0.38071417  -0.37817894  -0.37217639  -0.37034387  -0.35986023
  -0.35348963  -0.34571626  -0.32127278  -0.31564681  -0.30220394
  -0.29634053  -0.29220823  -0.26904715  -0.25811691  -0.25423596
  -0.2427108   -0.23339879  -0.22564577  -0.21058672  -0.19578651
  -0.17226974  -0.16516384  -0.10317268  -0.02115512   0.03521701
   0.05600971   0.07415697   0.11516544   0.13968443   0.19189024
   0.19986624   0.21367515   0.21472829   0.23274693   0.24049006
   0.24627431   0.26800993   0.27560262   0.27919801   0.28993758
   0.32500025   0.33566723   0.34261091   0.35150939   0.36127084
   0.36605406   0.37540124   0.39386133   0.42398019   0.44805448
   0.45566156   0.48662034   0.52101816   0.53625766   0.54364141
   0.54930957   0.57485177   0.59939037   0.61881995   0.63178677
   0.6626038    0.67442592   0.7161565    0.73729142   0.74915206
   0.77945465   0.80399007   0.8103179    0.84193952   0.87774652
   0.90217823   0.96520006   1.0149694    1.06089115]
nelec by numeric integration = 146.00000428297446
    CPU time for vxc     37.77 sec, wall time     15.64 sec
E1 = -4092.9242370171505  Ecoul = 1891.3120775942684  Exc = -124.60369880779963
cycle= 9 E= -835.583501631703  delta_E= -2.04e-07  |g|= 0.000387  |ddm|= 0.00144
    CPU time for cycle= 9     38.37 sec, wall time     15.73 sec
  HOMO = -0.103179361249073  LUMO = -0.021152803313941
  mo_energy =
[-10.0324192  -10.0299386  -10.02786768 -10.02722643 -10.02447199
 -10.02434787 -10.0236549  -10.02315793 -10.02180006 -10.01921468
 -10.01854878 -10.01832851 -10.01762921 -10.01703437 -10.01302709
 -10.0128087  -10.01083348 -10.00914936 -10.0091387  -10.00868552
 -10.00240396 -10.00039016  -0.86781463  -0.84279444  -0.82114727
  -0.79933939  -0.79156631  -0.74790922  -0.73329394  -0.71632529
  -0.69415131  -0.68195454  -0.64865831  -0.61699909  -0.58919953
  -0.58550472  -0.55556783  -0.5402496   -0.53608207  -0.53055457
  -0.51383654  -0.48887886  -0.47026251  -0.45835737  -0.44570654
  -0.43179459  -0.42158379  -0.41313752  -0.41025913  -0.39621515
  -0.38072459  -0.37818684  -0.37218547  -0.37033746  -0.35986884
  -0.35350448  -0.34572664  -0.32126341  -0.31564858  -0.30220735
  -0.29634055  -0.29221014  -0.26906643  -0.25811651  -0.25424234
  -0.2427156   -0.23340249  -0.22566412  -0.21058217  -0.19579447
  -0.17227874  -0.16517134  -0.10317936  -0.0211528    0.03520802
   0.05599852   0.07414735   0.11515008   0.13967588   0.19189804
   0.19986605   0.21368214   0.21472974   0.23274794   0.24049004
   0.24627731   0.26801536   0.27559114   0.27918404   0.28993062
   0.3249846    0.33566161   0.34260589   0.35151569   0.36125695
   0.36603946   0.37540262   0.39386097   0.42396925   0.44804725
   0.45565849   0.48661782   0.52102034   0.53623852   0.54363557
   0.54930108   0.57483502   0.59937615   0.61880676   0.63175945
   0.66261488   0.67439579   0.71614967   0.73728505   0.74915568
   0.77945867   0.80398982   0.81030681   0.84194625   0.87775382
   0.9021659    0.96518704   1.01496473   1.06089196]
nelec by numeric integration = 146.00000428282894
    CPU time for vxc     38.40 sec, wall time     15.83 sec
E1 = -4092.9250635453736  Ecoul = 1891.3129162492598  Exc = -124.603710990805
cycle= 10 E= -835.58350168794  delta_E= -5.62e-08  |g|= 0.000107  |ddm|= 0.000604
    CPU time for cycle= 10     38.76 sec, wall time     15.90 sec
  HOMO = -0.103179791813601  LUMO = -0.0211512751160773
  mo_energy =
[-10.03240751 -10.02993914 -10.02787352 -10.02722739 -10.02446147
 -10.02434894 -10.02365318 -10.02315764 -10.02180871 -10.01920829
 -10.01853406 -10.01831586 -10.01765591 -10.01706334 -10.01302759
 -10.01281978 -10.01083662 -10.00916091 -10.00914233 -10.00866764
 -10.00240145 -10.0003921   -0.86781324  -0.8427957   -0.82113796
  -0.79934407  -0.79157322  -0.74791208  -0.73329439  -0.71632636
  -0.69415425  -0.68195848  -0.64865873  -0.61699607  -0.58920243
  -0.58550189  -0.55556735  -0.54025239  -0.53608164  -0.53055586
  -0.51383203  -0.48888142  -0.47026381  -0.45835815  -0.44570476
  -0.43179604  -0.4215862   -0.41313962  -0.41025481  -0.39621815
  -0.38072541  -0.37818765  -0.37219025  -0.37033176  -0.35987105
  -0.35350747  -0.34573001  -0.32125867  -0.31565559  -0.30220994
  -0.29634453  -0.29221271  -0.26906732  -0.25811603  -0.25424277
  -0.24271849  -0.2334055   -0.22566541  -0.21058043  -0.19579382
  -0.17228266  -0.16517177  -0.10317979  -0.02115128   0.03520834
   0.05599358   0.07414823   0.11515043   0.13967054   0.19189991
   0.19986589   0.21368529   0.21472829   0.23274546   0.24048788
   0.24627913   0.26802093   0.27558642   0.27918119   0.28992113
   0.32498054   0.335661     0.34260201   0.35151824   0.36125977
   0.36603489   0.37540334   0.39385827   0.42396453   0.44804134
   0.45565754   0.48660963   0.52102365   0.53623832   0.54363451
   0.54929788   0.5748367    0.59937472   0.61880323   0.63175798
   0.66262697   0.67439217   0.71614482   0.73728687   0.74914583
   0.77945813   0.80399402   0.81030118   0.84195071   0.87775916
   0.90216481   0.96518566   1.0149651    1.06089133]
nelec by numeric integration = 146.00000428285205
    CPU time for vxc     38.08 sec, wall time     15.73 sec
E1 = -4092.9253554691654  Ecoul = 1891.3132057546911  Exc = -124.60370857637544
cycle= 11 E= -835.58350169187  delta_E= -3.93e-09  |g|= 5.38e-05  |ddm|= 0.000263
    CPU time for cycle= 11     38.56 sec, wall time     15.81 sec
  HOMO = -0.103179852861551  LUMO = -0.0211499390141998
  mo_energy =
[-10.03240821 -10.0299419  -10.02786872 -10.02722961 -10.02446831
 -10.02434959 -10.02365343 -10.02315254 -10.02180011 -10.01921192
 -10.01853439 -10.01831541 -10.01764149 -10.01704796 -10.01302101
 -10.01281646 -10.01084196 -10.00915967 -10.00913868 -10.00867583
 -10.00240503 -10.00038817  -0.86781443  -0.84279403  -0.82113839
  -0.79934161  -0.79156992  -0.74791134  -0.73329241  -0.71632638
  -0.69415237  -0.68195678  -0.64865785  -0.61699542  -0.58920123
  -0.58550175  -0.55556691  -0.54024983  -0.53608206  -0.53055485
  -0.51383217  -0.4888794   -0.47026351  -0.45835682  -0.44570472
  -0.43179524  -0.4215848   -0.41313787  -0.41025573  -0.39621679
  -0.38072454  -0.3781876   -0.37218769  -0.37033262  -0.35986977
  -0.35350585  -0.34572769  -0.32125848  -0.31565444  -0.30220821
  -0.29634278  -0.29221143  -0.26906559  -0.25811613  -0.25424263
  -0.24271708  -0.23340384  -0.22566341  -0.21058057  -0.19579355
  -0.1722804   -0.16517049  -0.10317985  -0.02114994   0.03520915
   0.05599601   0.07414814   0.11515137   0.13967334   0.19190086
   0.1998658    0.21368487   0.21472857   0.23274707   0.24048799
   0.24627819   0.26801976   0.27558936   0.27918347   0.28992099
   0.32498227   0.33566076   0.34260429   0.35151914   0.36125897
   0.3660376    0.37540438   0.39386082   0.42396604   0.44804414
   0.45565818   0.48661439   0.52102248   0.53623951   0.54363546
   0.54929952   0.57483784   0.59937425   0.61880357   0.63176073
   0.66262577   0.6743957    0.71614839   0.73728674   0.7491513
   0.77945918   0.80399446   0.81030574   0.84194993   0.87775887
   0.90216473   0.96518472   1.01496428   1.06089094]
nelec by numeric integration = 146.00000428284554
    CPU time for vxc     37.95 sec, wall time     15.71 sec
E1 = -4092.925226996917  Ecoul = 1891.3130757629842  Exc = -124.6037070579237
cycle= 12 E= -835.583501692877  delta_E= -1.01e-09  |g|= 1.52e-05  |ddm|= 9.51e-05
    CPU time for cycle= 12     38.33 sec, wall time     15.77 sec
  HOMO = -0.103179167838235  LUMO = -0.0211495721464753
  mo_energy =
[-10.03240886 -10.0299391  -10.02786575 -10.02723009 -10.02446622
 -10.02435024 -10.02365124 -10.02315438 -10.02180241 -10.01920961
 -10.01853496 -10.01831588 -10.01764323 -10.01704688 -10.0130235
 -10.01281569 -10.01083884 -10.00915587 -10.00913922 -10.00867459
 -10.00240394 -10.00038768  -0.86781257  -0.84279493  -0.82113862
  -0.79934067  -0.79156937  -0.74791015  -0.73329311  -0.71632539
  -0.69415247  -0.68195644  -0.64865727  -0.61699549  -0.5892005
  -0.58550163  -0.5555667   -0.54025041  -0.53608135  -0.53055468
  -0.5138323   -0.48887961  -0.47026274  -0.45835679  -0.4457041
  -0.43179531  -0.42158433  -0.41313811  -0.41025529  -0.39621644
  -0.38072434  -0.37818657  -0.37218739  -0.37033235  -0.35986952
  -0.35350567  -0.34572778  -0.32125841  -0.31565325  -0.30220725
  -0.29634206  -0.29221086  -0.26906593  -0.2581158   -0.25424252
  -0.2427163   -0.23340342  -0.22566381  -0.21057965  -0.1957932
  -0.17227994  -0.16517037  -0.10317917  -0.02114957   0.03520909
   0.05599626   0.07414852   0.11515146   0.13967389   0.19190082
   0.19986691   0.21368558   0.2147294    0.23274751   0.240488
   0.24627908   0.26802041   0.27558923   0.27918299   0.28992328
   0.32498264   0.3356623    0.3426047    0.35151893   0.36125861
   0.36603725   0.37540445   0.39386082   0.42396639   0.44804465
   0.45565734   0.48661393   0.52102296   0.53623926   0.54363571
   0.5492998    0.57483707   0.59937564   0.6188053    0.6317598
   0.66262462   0.67439517   0.71614804   0.7372874    0.74915145
   0.77945972   0.80399478   0.81030531   0.84195084   0.87775967
   0.90216619   0.965187     1.01496601   1.06089022]
nelec by numeric integration = 146.00000428284756
    CPU time for vxc     38.66 sec, wall time     15.92 sec
E1 = -4092.9251738737703  Ecoul = 1891.3130220797145  Exc = -124.60370649786844
cycle= 13 E= -835.583501692945  delta_E= -6.78e-11  |g|= 7.3e-06  |ddm|= 3.26e-05
    CPU time for cycle= 13     39.28 sec, wall time     16.01 sec
  HOMO = -0.103180025550591  LUMO = -0.0211502347934856
  mo_energy =
[-10.0324089  -10.02994124 -10.02787079 -10.02722853 -10.02446848
 -10.02434884 -10.02365461 -10.02315214 -10.02180015 -10.01921147
 -10.01853527 -10.01831654 -10.01764234 -10.01704943 -10.01302149
 -10.01281633 -10.01084102 -10.0091606  -10.00913838 -10.00867543
 -10.00240504 -10.00038845  -0.86781485  -0.84279376  -0.82113917
  -0.79934216  -0.79157021  -0.74791152  -0.73329243  -0.71632663
  -0.69415246  -0.68195677  -0.64865813  -0.61699589  -0.58920147
  -0.58550208  -0.55556714  -0.54024998  -0.53608219  -0.53055502
  -0.51383279  -0.48887966  -0.47026374  -0.45835709  -0.44570514
  -0.43179519  -0.42158498  -0.41313811  -0.41025622  -0.39621691
  -0.38072474  -0.37818779  -0.37218781  -0.3703328   -0.35986987
  -0.35350576  -0.34572771  -0.32125895  -0.31565392  -0.30220873
  -0.29634294  -0.29221157  -0.26906567  -0.25811583  -0.25424223
  -0.2427173   -0.23340395  -0.22566342  -0.21058103  -0.19579363
  -0.17228056  -0.16517055  -0.10318003  -0.02115023   0.03520898
   0.05599588   0.07414799   0.11515131   0.13967309   0.19190058
   0.19986558   0.21368459   0.21472863   0.23274687   0.24048863
   0.24627812   0.2680194    0.27558916   0.2791835    0.28992205
   0.32498235   0.33566048   0.34260407   0.35151852   0.36125884
   0.36603756   0.37540388   0.39386045   0.42396619   0.44804395
   0.45565848   0.48661404   0.52102196   0.53623942   0.54363506
   0.54929936   0.57483751   0.59937421   0.61880315   0.63176067
   0.66262462   0.67439574   0.71614813   0.73728642   0.74915087
   0.77945883   0.80399382   0.81030548   0.84194955   0.87775813
   0.90216436   0.96518425   1.01496405   1.06089159]
nelec by numeric integration = 146.00000428284605
    CPU time for vxc     38.13 sec, wall time     15.77 sec
E1 = -4092.9252536204885  Ecoul = 1891.3131031255452  Exc = -124.60370779693481
Extra cycle  E= -835.583501692899  delta_E= 4.59e-11  |g|= 1.32e-05  |ddm|= 3.15e-05
    CPU time for scf_cycle    586.04 sec, wall time    239.00 sec
    CPU time for SCF    586.04 sec, wall time    239.00 sec
converged SCF energy = -835.583501692899
nelec by numeric integration = 146.00000428284605
    CPU time for vxc     38.17 sec, wall time     15.70 sec
 ** Mulliken pop  **
pop of  0 C 1s            1.99056
pop of  0 C 2s            1.09861
pop of  0 C 2px           0.99424
pop of  0 C 2py           0.97357
pop of  0 C 2pz           0.93530
pop of  1 C 1s            1.99152
pop of  1 C 2s            1.15156
pop of  1 C 2px           0.97234
pop of  1 C 2py           0.92462
pop of  1 C 2pz           0.93043
pop of  2 C 1s            1.99148
pop of  2 C 2s            1.13847
pop of  2 C 2px           1.06059
pop of  2 C 2py           0.93549
pop of  2 C 2pz           1.01410
pop of  3 C 1s            1.99090
pop of  3 C 2s            1.06528
pop of  3 C 2px           1.00785
pop of  3 C 2py           1.01050
pop of  3 C 2pz           1.00671
pop of  4 C 1s            1.99181
pop of  4 C 2s            1.17628
pop of  4 C 2px           0.91645
pop of  4 C 2py           0.95035
pop of  4 C 2pz           0.97469
pop of  5 C 1s            1.99038
pop of  5 C 2s            1.04615
pop of  5 C 2px           1.05235
pop of  5 C 2py           1.00921
pop of  5 C 2pz           1.05045
pop of  6 C 1s            1.99026
pop of  6 C 2s            1.06126
pop of  6 C 2px           1.06530
pop of  6 C 2py           1.06182
pop of  6 C 2pz           1.02739
pop of  7 C 1s            1.99201
pop of  7 C 2s            1.21928
pop of  7 C 2px           0.91884
pop of  7 C 2py           0.92692
pop of  7 C 2pz           0.93117
pop of  8 C 1s            1.99098
pop of  8 C 2s            1.10913
pop of  8 C 2px           1.00283
pop of  8 C 2py           0.96805
pop of  8 C 2pz           0.93943
pop of  9 C 1s            1.99083
pop of  9 C 2s            1.04744
pop of  9 C 2px           1.01176
pop of  9 C 2py           1.00943
pop of  9 C 2pz           0.94378
pop of  10 C 1s           1.99133
pop of  10 C 2s           1.21047
pop of  10 C 2px          0.98183
pop of  10 C 2py          0.91466
pop of  10 C 2pz          0.93728
pop of  11 C 1s           1.99103
pop of  11 C 2s           1.10289
pop of  11 C 2px          1.02720
pop of  11 C 2py          0.95983
pop of  11 C 2pz          1.01468
pop of  12 C 1s           1.99127
pop of  12 C 2s           1.20875
pop of  12 C 2px          0.98132
pop of  12 C 2py          0.91345
pop of  12 C 2pz          0.90957
pop of  13 C 1s           1.99115
pop of  13 C 2s           1.17835
pop of  13 C 2px          0.96262
pop of  13 C 2py          0.92458
pop of  13 C 2pz          0.92987
pop of  14 C 1s           1.99112
pop of  14 C 2s           1.18797
pop of  14 C 2px          0.97589
pop of  14 C 2py          0.93305
pop of  14 C 2pz          0.97672
pop of  15 C 1s           1.99058
pop of  15 C 2s           1.11747
pop of  15 C 2px          1.03895
pop of  15 C 2py          0.96826
pop of  15 C 2pz          0.99311
pop of  16 C 1s           1.99076
pop of  16 C 2s           1.14748
pop of  16 C 2px          0.98784
pop of  16 C 2py          0.93608
pop of  16 C 2pz          0.93157
pop of  17 C 1s           1.99130
pop of  17 C 2s           1.17827
pop of  17 C 2px          0.96548
pop of  17 C 2py          0.93651
pop of  17 C 2pz          0.91741
pop of  18 C 1s           1.99076
pop of  18 C 2s           1.05851
pop of  18 C 2px          1.03403
pop of  18 C 2py          1.00698
pop of  18 C 2pz          1.04717
pop of  19 C 1s           1.99171
pop of  19 C 2s           1.26058
pop of  19 C 2px          0.93290
pop of  19 C 2py          0.91834
pop of  19 C 2pz          0.93777
pop of  20 C 1s           1.99154
pop of  20 C 2s           1.07092
pop of  20 C 2px          0.98346
pop of  20 C 2py          1.00211
pop of  20 C 2pz          0.98541
pop of  21 C 1s           1.99076
pop of  21 C 2s           1.15851
pop of  21 C 2px          1.01018
pop of  21 C 2py          0.99534
pop of  21 C 2pz          0.94631
pop of  22 H 1s           0.88164
pop of  23 H 1s           0.93394
pop of  24 H 1s           0.92906
pop of  25 H 1s           0.88801
pop of  26 H 1s           0.86719
pop of  27 H 1s           0.96176
pop of  28 H 1s           0.95026
pop of  29 H 1s           0.91330
pop of  30 H 1s           0.92932
pop of  31 H 1s           0.92105
pop of  32 H 1s           0.88922
pop of  33 H 1s           0.93844
pop of  34 H 1s           0.95852
pop of  35 H 1s           0.89694
 ** Mulliken atomic charges  **
charge of    0C =      0.00773
charge of    1C =      0.02952
charge of    2C =     -0.14013
charge of    3C =     -0.08125
charge of    4C =     -0.00958
charge of    5C =     -0.14853
charge of    6C =     -0.20603
charge of    7C =      0.01178
charge of    8C =     -0.01043
charge of    9C =     -0.00324
charge of   10C =     -0.03557
charge of   11C =     -0.09562
charge of   12C =     -0.00436
charge of   13C =      0.01343
charge of   14C =     -0.06475
charge of   15C =     -0.10838
charge of   16C =      0.00626
charge of   17C =      0.01103
charge of   18C =     -0.13744
charge of   19C =     -0.04130
charge of   20C =     -0.03343
charge of   21C =     -0.10110
charge of   22H =      0.11836
charge of   23H =      0.06606
charge of   24H =      0.07094
charge of   25H =      0.11199
charge of   26H =      0.13281
charge of   27H =      0.03824
charge of   28H =      0.04974
charge of   29H =      0.08670
charge of   30H =      0.07068
charge of   31H =      0.07895
charge of   32H =      0.11078
charge of   33H =      0.06156
charge of   34H =      0.04148
charge of   35H =      0.10306
Dipole moment(X, Y, Z, Debye): -0.09144, -0.17959, -0.40598
nelec by numeric integration = 146.00000428284605
    CPU time for vxc     37.75 sec, wall time     15.68 sec
E1 = -4092.9252536204885  Ecoul = 1891.3131031255448  Exc = -124.60370779693481
nelec by numeric integration = 146.00000428284605
    CPU time for vxc     37.64 sec, wall time     15.69 sec
E1 = -4092.9252536204885  Ecoul = 1891.3131031255452  Exc = -124.60370779693481
