System: uname_result(system='Linux', node='cosmopc18', release='5.15.0-97-generic', version='#107-Ubuntu SMP Wed Feb 7 13:26:48 UTC 2024', machine='x86_64')  Threads 4
Python 3.11.8 (main, Feb 26 2024, 21:39:34) [GCC 11.2.0]
numpy 1.26.4  scipy 1.11.4
Date: Tue Apr  9 11:55:36 2024
PySCF version 2.3.0
PySCF path  /home/saade/miniconda3/envs/tutorial/lib/python3.11/site-packages/pyscf

[ENV] PYSCFAD_BACKEND torch
[CONFIG] conf_file None
[INPUT] verbose = 5
[INPUT] max_memory = 4000 
[INPUT] num. atoms = 36
[INPUT] num. electrons = 146
[INPUT] charge = 0
[INPUT] spin (= nelec alpha-beta = 2S) = 0
[INPUT] symmetry False subgroup None
[INPUT] Mole.unit = angstrom
[INPUT] Symbol           X                Y                Z      unit          X                Y                Z       unit  Magmom
[INPUT]  1 C      0.024940000000   3.532271000000   0.962260000000 AA    0.047129769547   6.675024787744   1.818407860624 Bohr   0.0
[INPUT]  2 C      0.125446000000   3.645512000000  -0.935530000000 AA    0.237058583422   6.889019263815  -1.767895481314 Bohr   0.0
[INPUT]  3 C     -0.150173000000   4.942894000000   1.399218000000 AA   -0.283785841304   9.340715922756   2.644138808562 Bohr   0.0
[INPUT]  4 C     -0.143577000000   2.725395000000   1.674812000000 AA   -0.271321207787   5.150250131259   3.164935990135 Bohr   0.0
[INPUT]  5 C      0.083602000000   4.753145000000  -1.520580000000 AA    0.157984883466   8.982142280346  -2.873479750491 Bohr   0.0
[INPUT]  6 C      0.165513000000   2.505344000000  -1.489270000000 AA    0.312774240055   4.734414007822  -2.814312425531 Bohr   0.0
[INPUT]  7 C     -0.108560000000   6.031448000000  -0.871161000000 AA   -0.205148668083  11.397784854556  -1.646255700402 Bohr   0.0
[INPUT]  8 C     -0.126234000000   6.082187000000   0.603350000000 AA   -0.238547687608  11.493667668390   1.140166257256 Bohr   0.0
[INPUT]  9 C      0.028183000000   0.942611000000   0.797697000000 AA    0.053258151369   1.781276632002   1.507428860387 Bohr   0.0
[INPUT] 10 C     -0.025245000000   1.115645000000  -0.655567000000 AA   -0.047706136015   2.108263502240  -1.238842086303 Bohr   0.0
[INPUT] 11 C      0.015867000000  -0.078848000000   1.297086000000 AA    0.029984284418  -0.149001125470   2.451137300008 Bohr   0.0
[INPUT] 12 C     -0.187136000000  -0.067297000000  -1.297998000000 AA   -0.353635788047  -0.127172899005  -2.452860730233 Bohr   0.0
[INPUT] 13 C     -0.222319000000  -1.308762000000   0.819471000000 AA   -0.420122022287  -2.473201742238   1.548575757023 Bohr   0.0
[INPUT] 14 C      0.111242000000  -1.348451000000  -0.639949000000 AA    0.210216913549  -2.548203082396  -1.209328343689 Bohr   0.0
[INPUT] 15 C     -0.079827000000  -2.664701000000   1.269832000000 AA   -0.150851167346  -5.035555093855   2.399634704209 Bohr   0.0
[INPUT] 16 C     -0.058696000000  -2.251438000000  -1.247423000000 AA   -0.110919364607  -4.254601206439  -2.357287831483 Bohr   0.0
[INPUT] 17 C      0.075697000000  -3.662717000000   0.973234000000 AA    0.143046598451  -6.921532001789   1.839145715115 Bohr   0.0
[INPUT] 18 C      0.181156000000  -3.559647000000  -0.753741000000 AA    0.342335225822  -6.726757930130  -1.424364058856 Bohr   0.0
[INPUT] 19 C      0.101467000000  -4.841450000000   1.297519000000 AA    0.191744840681  -9.149014545776   2.451955551420 Bohr   0.0
[INPUT] 20 C      0.031874000000  -4.845659000000  -1.312826000000 AA    0.060233130494  -9.156968403034  -2.480881589208 Bohr   0.0
[INPUT] 21 C      0.007200000000  -6.016363000000   0.570822000000 AA    0.013606028097 -11.369278335967   1.078697245876 Bohr   0.0
[INPUT] 22 C     -0.050583000000  -5.936148000000  -0.687169000000 AA   -0.095588016559 -11.217693954885  -1.298561211291 Bohr   0.0
[INPUT] 23 H     -0.110400000000   4.880269000000   2.444075000000 AA   -0.208625764152   9.222371824205   4.618632377896 Bohr   0.0
[INPUT] 24 H      0.027896000000   2.481588000000   2.608129000000 AA    0.052715799971   4.689521674007   4.928649507536 Bohr   0.0
[INPUT] 25 H     -0.122690000000   4.947301000000  -2.525864000000 AA   -0.231850498223   9.349043945787  -4.773191187898 Bohr   0.0
[INPUT] 26 H     -0.006428000000   2.617785000000  -2.434498000000 AA   -0.012147159529   4.946896702995  -4.600534470801 Bohr   0.0
[INPUT] 27 H      0.077117000000   7.000853000000  -1.441665000000 AA    0.145730009548  13.229694808340  -2.724352013371 Bohr   0.0
[INPUT] 28 H      0.145298000000   7.029629000000   1.297823000000 AA    0.274573426447  13.284073567300   2.452530028161 Bohr   0.0
[INPUT] 29 H     -0.051419000000   0.019519000000   2.588834000000 AA   -0.097167827599   0.036885564225   4.892187241962 Bohr   0.0
[INPUT] 30 H     -0.164996000000  -0.053055000000  -2.627309000000 AA   -0.311797251649  -0.100259419539  -4.964894454605 Bohr   0.0
[INPUT] 31 H     -0.009614000000  -2.531336000000   2.281691000000 AA   -0.018167826962  -4.783531769252   4.311771090885 Bohr   0.0
[INPUT] 32 H     -0.044216000000  -2.209635000000  -2.433742000000 AA   -0.083556130324  -4.175604985253  -4.599105837851 Bohr   0.0
[INPUT] 33 H     -0.126713000000  -5.036915000000   2.440443000000 AA   -0.239452866422  -9.518389862714   4.611768892612 Bohr   0.0
[INPUT] 34 H     -0.137385000000  -4.691642000000  -2.429416000000 AA   -0.259620023623  -8.865918454507  -4.590930882636 Bohr   0.0
[INPUT] 35 H      0.184103000000  -6.991732000000   1.165239000000 AA    0.347904248711 -13.212458616358   2.201982579662 Bohr   0.0
[INPUT] 36 H      0.051036000000  -6.990798000000  -1.374426000000 AA    0.096444062493 -13.210693612157  -2.597288718481 Bohr   0.0
[INPUT] ---------------- BASIS SET ---------------- 
[INPUT] l, kappa, [nprim/nctr], expnt,             c_1 c_2 ...
[INPUT] H
[INPUT] 0    0    [3    /1   ]  3.42525091        0.15432897
                                0.62391373        0.53532814
                                0.1688554         0.44463454
[INPUT] C
[INPUT] 0    0    [3    /1   ]  71.616837         0.15432897
                                13.045096         0.53532814
                                3.5305122         0.44463454
[INPUT] 0    0    [3    /1   ]  2.9412494         -0.09996723
                                0.6834831         0.39951283
                                0.2222899         0.70011547
[INPUT] 1    0    [3    /1   ]  2.9412494         0.15591627
                                0.6834831         0.60768372
                                0.2222899         0.39195739

nuclear repulsion = 1511.8668045891
number of shells = 80
number of NR pGTOs = 372
number of NR cGTOs = 124
basis = sto3g
ecp = {}
CPU time:     19598.54
atom C rad-grids = 99, ang-grids = [ 50  50  50  50  50  50  50  50  50  50  50  50  50  50  50  50  50  50
  50  50  50  50  50  50  50  50  50  50  50  50  50  86  86  86  86  86
  86  86  86  86  86  86  86 434 434 434 434 434 434 434 434 434 590 590
 590 590 590 590 590 590 590 590 590 590 590 590 590 590 590 590 590 590
 590 590 590 590 590 590 590 434 434 434 434 434 434 434 434 434 434 434
 434 434 434 434 434 434 434 434 434]
atom H rad-grids = 99, ang-grids = [ 50  50  50  50  50  50  50  50  50  50  50  50  50  50  50  50  50  50
  50  50  50  50  50  50  50  50  50  50  86  86  86  86  86  86  86 434
 434 434 434 434 434 434 434 590 590 590 590 590 590 590 590 590 590 590
 590 590 590 590 590 590 590 590 590 590 590 590 590 590 590 434 434 434
 434 434 434 434 434 434 434 434 434 434 434 434 434 434 434 434 434 434
 434 434 434 434 434 434 434 434 434]
tot_boxes 5270, boxes in each direction [ 8 29 15]
Padding 0 grids
tot grids = 1157832


******** <class 'pyscf.dft.rks.RKS'> ********
method = RKS
initial guess = minao
damping factor = 0
level_shift factor = 0
DIIS = <class 'pyscf.scf.diis.CDIIS'>
diis_start_cycle = 1
diis_space = 8
SCF conv_tol = 1e-10
SCF conv_tol_grad = None
SCF max_cycles = 50
direct_scf = True
direct_scf_tol = 1e-13
chkfile to save SCF result = /home/saade/mlelec/tutorials/tmp9ziaur4x
max_memory 4000 MB (current use 637 MB)
XC library pyscf.dft.libxc version 6.1.0
    S. Lehtola, C. Steigemann, M. J.T. Oliveira, and M. A.L. Marques.,  SoftwareX 7, 1–5 (2018)
XC functionals = b3lypg
    P. J. Stephens, F. J. Devlin, C. F. Chabalowski, and M. J. Frisch.,  J. Phys. Chem. 98, 11623 (1994)
radial grids: 
    Treutler-Ahlrichs [JCP 102, 346 (1995); DOI:10.1063/1.469408] (M4) radial grids
    
becke partition: Becke, JCP 88, 2547 (1988); DOI:10.1063/1.454033
pruning grids: <function nwchem_prune at 0x7f9db5616ca0>
grids dens level: 3
symmetrized grids: False
atomic radii adjust function: <function treutler_atomic_radii_adjust at 0x7f9db5617380>
User specified grid scheme (99, 590)
small_rho_cutoff = 1e-07
Set gradient conv threshold to 1e-05
Initial guess from minao.
nelec by numeric integration = 145.27049442555935
    CPU time for vxc     36.82 sec, wall time     15.46 sec
E1 = -4121.822703875747  Ecoul = 1893.9542692331631  Exc = -126.48750966045174
init E= -842.489139713933
cond(S) = 38.45508222795725
    CPU time for initialize scf     46.58 sec, wall time     17.84 sec
  HOMO = -0.225243709546395  LUMO = -0.142256732655982
  mo_energy =
[-1.02052183e+01 -1.01934171e+01 -1.01676960e+01 -1.01608349e+01
 -1.01559285e+01 -1.01554235e+01 -1.01444131e+01 -1.01323391e+01
 -1.01226819e+01 -1.01193582e+01 -1.01172734e+01 -1.01163090e+01
 -1.01142208e+01 -1.01078471e+01 -1.01059647e+01 -1.01043883e+01
 -1.00946878e+01 -1.00906805e+01 -1.00877834e+01 -1.00805204e+01
 -1.00739662e+01 -1.00715571e+01 -1.15479307e+00 -1.09357899e+00
 -1.05851993e+00 -1.02810438e+00 -1.02613410e+00 -1.00525297e+00
 -9.29314321e-01 -9.03460877e-01 -8.73189285e-01 -8.62469108e-01
 -8.25378632e-01 -7.79973979e-01 -7.53529277e-01 -7.27381134e-01
 -6.79448216e-01 -6.65850533e-01 -6.50352223e-01 -6.45729613e-01
 -6.17445586e-01 -5.99597639e-01 -5.80847634e-01 -5.77141697e-01
 -5.59903875e-01 -5.38705941e-01 -5.35377344e-01 -5.30118553e-01
 -5.11877604e-01 -5.06345156e-01 -4.80318454e-01 -4.73477972e-01
 -4.63814855e-01 -4.49397255e-01 -4.45070936e-01 -4.43445337e-01
 -4.31230590e-01 -4.24093121e-01 -4.19552422e-01 -4.11760479e-01
 -4.07412898e-01 -4.05312983e-01 -3.96958500e-01 -3.83188943e-01
 -3.62181249e-01 -3.48316213e-01 -3.20058253e-01 -3.03712717e-01
 -2.80013136e-01 -2.67690051e-01 -2.61912550e-01 -2.52609105e-01
 -2.25243710e-01 -1.42256733e-01 -1.31081247e-01 -8.93343982e-02
 -8.33690977e-02 -3.62910218e-02 -9.50601736e-03  3.13350237e-02
  3.96326436e-02  4.85711058e-02  4.94407787e-02  9.04067079e-02
  1.00452545e-01  1.12972496e-01  1.32464465e-01  1.34627125e-01
  1.65955411e-01  1.72688411e-01  2.00881775e-01  2.06682010e-01
  2.24536135e-01  2.56378600e-01  2.63854982e-01  2.84141076e-01
  2.93341303e-01  3.07215354e-01  3.11456738e-01  3.32468825e-01
  3.40484338e-01  3.47396433e-01  3.95380563e-01  4.09099943e-01
  4.17978193e-01  4.23450789e-01  4.40879711e-01  4.58645700e-01
  4.69678041e-01  4.85938004e-01  5.03381565e-01  5.46120105e-01
  5.67763015e-01  5.77567918e-01  6.32801624e-01  6.94000753e-01
  7.01042311e-01  7.37642696e-01  7.59533632e-01  8.01121524e-01
  9.15637331e-01  9.74970181e-01  1.02595106e+00  1.17240970e+00]
nelec by numeric integration = 145.99999971040245
    CPU time for vxc     38.02 sec, wall time     15.65 sec
E1 = -4137.920405426545  Ecoul = 1916.1087927539506  Exc = -125.11845158167527
cycle= 1 E= -835.063259665167  delta_E= 7.43  |g|= 0.363  |ddm|= 9.47
    CPU time for cycle= 1     38.31 sec, wall time     15.71 sec
  HOMO = -0.101687970685339  LUMO = 0.00482667491543398
  mo_energy =
[-1.00906042e+01 -1.00403833e+01 -1.00170893e+01 -1.00140284e+01
 -1.00139059e+01 -1.00084624e+01 -1.00043462e+01 -1.00019847e+01
 -9.99409572e+00 -9.99392718e+00 -9.97464466e+00 -9.97245993e+00
 -9.96404915e+00 -9.95395482e+00 -9.95212216e+00 -9.94739691e+00
 -9.94711394e+00 -9.94217629e+00 -9.93573173e+00 -9.93300453e+00
 -9.92682681e+00 -9.90391292e+00 -8.37138313e-01 -8.16534310e-01
 -8.11730813e-01 -7.70087963e-01 -7.65554087e-01 -7.51277850e-01
 -7.41309668e-01 -6.94147113e-01 -6.78762788e-01 -6.64970406e-01
 -6.42272428e-01 -6.05229488e-01 -5.84070262e-01 -5.69907385e-01
 -5.34390349e-01 -5.16983900e-01 -5.07665879e-01 -4.93826197e-01
 -4.73943635e-01 -4.69394997e-01 -4.58285655e-01 -4.51140738e-01
 -4.34778140e-01 -4.17890878e-01 -4.02908406e-01 -3.91324653e-01
 -3.75382056e-01 -3.70018433e-01 -3.66933320e-01 -3.65080480e-01
 -3.50497304e-01 -3.46336861e-01 -3.24728718e-01 -3.23877078e-01
 -3.17074021e-01 -3.11329100e-01 -3.02089309e-01 -2.95284631e-01
 -2.86050723e-01 -2.70761873e-01 -2.69414164e-01 -2.58301951e-01
 -2.41136292e-01 -2.35132012e-01 -2.21104968e-01 -1.84292604e-01
 -1.57912578e-01 -1.39860828e-01 -1.33191370e-01 -1.23269717e-01
 -1.01687971e-01  4.82667492e-03  4.46858925e-02  7.47220976e-02
  9.97910479e-02  1.07048822e-01  1.46442416e-01  2.10008421e-01
  2.15765956e-01  2.26952408e-01  2.37895550e-01  2.44249498e-01
  2.63814461e-01  2.77520615e-01  2.80538869e-01  2.83157615e-01
  3.19899225e-01  3.43183541e-01  3.46343645e-01  3.60467101e-01
  3.95118303e-01  3.96567682e-01  4.06062480e-01  4.27429208e-01
  4.37586516e-01  4.53858699e-01  4.83814986e-01  4.95116396e-01
  5.04751753e-01  5.13357705e-01  5.28613350e-01  5.44275636e-01
  5.73023709e-01  5.99343833e-01  6.09393706e-01  6.18144779e-01
  6.29445253e-01  6.51689255e-01  6.71053971e-01  7.02211299e-01
  7.20955489e-01  7.68363369e-01  8.29523065e-01  8.67040905e-01
  8.79763630e-01  8.98265333e-01  9.23204061e-01  1.01495869e+00
  1.14213544e+00  1.20011461e+00  1.23427952e+00  1.44070200e+00]
nelec by numeric integration = 145.99999976157434
    CPU time for vxc     38.45 sec, wall time     15.77 sec
E1 = -4129.477458972163  Ecoul = 1907.519042785446  Exc = -124.93390002774106
cycle= 2 E= -835.025511625355  delta_E= 0.0377  |g|= 0.492  |ddm|= 1.33
    CPU time for cycle= 2     38.89 sec, wall time     15.84 sec
  HOMO = -0.125649264786741  LUMO = -0.00280840437624796
  mo_energy =
[-1.00384136e+01 -1.00318240e+01 -1.00317901e+01 -1.00296162e+01
 -1.00257999e+01 -1.00223355e+01 -1.00199537e+01 -1.00187267e+01
 -1.00185533e+01 -1.00137233e+01 -1.00136128e+01 -1.00130114e+01
 -1.00122286e+01 -1.00083273e+01 -1.00044361e+01 -1.00020962e+01
 -1.00015289e+01 -9.99293585e+00 -9.98687085e+00 -9.98482925e+00
 -9.98313333e+00 -9.96832789e+00 -8.80579954e-01 -8.47479321e-01
 -8.29086606e-01 -8.06970883e-01 -7.99791903e-01 -7.93332708e-01
 -7.37102885e-01 -7.17335304e-01 -6.95111817e-01 -6.83908924e-01
 -6.64118434e-01 -6.24236911e-01 -6.05090557e-01 -5.87224628e-01
 -5.45729975e-01 -5.35277520e-01 -5.29673309e-01 -5.23087967e-01
 -4.97701311e-01 -4.80312717e-01 -4.75071860e-01 -4.69116863e-01
 -4.50454090e-01 -4.36575124e-01 -4.30914511e-01 -4.08694751e-01
 -4.03560670e-01 -3.96226915e-01 -3.82021585e-01 -3.66907753e-01
 -3.55661097e-01 -3.51084983e-01 -3.46105513e-01 -3.41792928e-01
 -3.32964009e-01 -3.27158495e-01 -3.22035343e-01 -3.19643960e-01
 -3.07884837e-01 -3.01104777e-01 -2.97213262e-01 -2.85942326e-01
 -2.69447968e-01 -2.54938062e-01 -2.25149265e-01 -2.05827510e-01
 -1.75296801e-01 -1.67643630e-01 -1.63215747e-01 -1.43701591e-01
 -1.25649265e-01 -2.80840438e-03  1.18673808e-02  5.65942566e-02
  6.65832220e-02  1.04939625e-01  1.34301041e-01  1.83087358e-01
  1.89286464e-01  1.97454452e-01  2.05560581e-01  2.38053923e-01
  2.42426813e-01  2.57661761e-01  2.64457437e-01  2.81664028e-01
  3.11608050e-01  3.14307244e-01  3.21933877e-01  3.58744576e-01
  3.69077136e-01  3.97423831e-01  4.02181165e-01  4.28343536e-01
  4.29569598e-01  4.42213260e-01  4.57193681e-01  4.74130508e-01
  4.87954575e-01  5.02925383e-01  5.09426980e-01  5.44074774e-01
  5.52934570e-01  5.75630042e-01  5.92837363e-01  6.08533480e-01
  6.18839668e-01  6.23694150e-01  6.44471727e-01  6.80724120e-01
  7.08361928e-01  7.37609084e-01  7.86655405e-01  8.33445656e-01
  8.54864029e-01  8.95960736e-01  8.96924160e-01  9.64457174e-01
  1.08062775e+00  1.14977847e+00  1.19439686e+00  1.35987763e+00]
nelec by numeric integration = 145.99999973119048
    CPU time for vxc     37.76 sec, wall time     15.56 sec
E1 = -4133.431363517915  Ecoul = 1911.4396298980594  Exc = -124.97664496658403
cycle= 3 E= -835.101573997337  delta_E= -0.0761  |g|= 0.208  |ddm|= 0.998
    CPU time for cycle= 3     38.29 sec, wall time     15.64 sec
  HOMO = -0.129969591362482  LUMO = -0.0084510172079575
  mo_energy =
[-1.00460358e+01 -1.00378429e+01 -1.00318095e+01 -1.00312630e+01
 -1.00270993e+01 -1.00259083e+01 -1.00248959e+01 -1.00238847e+01
 -1.00236047e+01 -1.00231931e+01 -1.00198566e+01 -1.00186578e+01
 -1.00158800e+01 -1.00149012e+01 -1.00142075e+01 -1.00131884e+01
 -1.00122427e+01 -1.00121782e+01 -1.00108465e+01 -1.00031459e+01
 -1.00011011e+01 -1.00006209e+01 -8.88093572e-01 -8.52144065e-01
 -8.31628814e-01 -8.13944519e-01 -8.07465581e-01 -7.99545365e-01
 -7.44077387e-01 -7.22403835e-01 -7.00297510e-01 -6.89467708e-01
 -6.68774103e-01 -6.30316948e-01 -6.13053597e-01 -5.95126910e-01
 -5.46029317e-01 -5.39688582e-01 -5.36116556e-01 -5.27420530e-01
 -5.02520859e-01 -4.85376941e-01 -4.81277278e-01 -4.69119681e-01
 -4.51059189e-01 -4.40029638e-01 -4.35853502e-01 -4.15183390e-01
 -4.08142132e-01 -4.02324427e-01 -3.86941046e-01 -3.71265695e-01
 -3.58833127e-01 -3.57195532e-01 -3.54963034e-01 -3.49174868e-01
 -3.35960842e-01 -3.31984359e-01 -3.26397833e-01 -3.21032107e-01
 -3.14295473e-01 -3.08123424e-01 -3.02108944e-01 -2.90688572e-01
 -2.73989489e-01 -2.57610903e-01 -2.33749274e-01 -2.10122039e-01
 -1.82067121e-01 -1.73895403e-01 -1.67567595e-01 -1.48924771e-01
 -1.29969591e-01 -8.45101721e-03  6.44808470e-03  4.98916416e-02
  6.25013242e-02  1.01998103e-01  1.23782083e-01  1.77901374e-01
  1.82786452e-01  1.93672722e-01  2.00466714e-01  2.34786682e-01
  2.39986209e-01  2.51671777e-01  2.59773732e-01  2.81547536e-01
  3.06452502e-01  3.13635841e-01  3.21237793e-01  3.55993710e-01
  3.71338461e-01  3.78553874e-01  3.98363338e-01  4.14476484e-01
  4.25061694e-01  4.34593625e-01  4.58118332e-01  4.68647552e-01
  4.77773208e-01  4.94879885e-01  5.10961023e-01  5.41078637e-01
  5.52929090e-01  5.70244039e-01  5.86018617e-01  6.02947129e-01
  6.09144994e-01  6.17695034e-01  6.32478441e-01  6.90461074e-01
  6.92212965e-01  7.28617117e-01  7.87142780e-01  8.41017363e-01
  8.49411739e-01  8.80483178e-01  8.99567959e-01  9.54696146e-01
  1.07995541e+00  1.14064571e+00  1.18006347e+00  1.34653936e+00]
nelec by numeric integration = 145.99999970385826
    CPU time for vxc     38.10 sec, wall time     15.77 sec
E1 = -4133.433442758811  Ecoul = 1911.4458619288184  Exc = -124.99560332513333
cycle= 4 E= -835.116379566023  delta_E= -0.0148  |g|= 0.0663  |ddm|= 0.404
    CPU time for cycle= 4     38.38 sec, wall time     15.82 sec
  HOMO = -0.132578271307425  LUMO = -0.0107706303462431
  mo_energy =
[-1.00355135e+01 -1.00343158e+01 -1.00323508e+01 -1.00322859e+01
 -1.00311337e+01 -1.00270557e+01 -1.00266056e+01 -1.00262792e+01
 -1.00252049e+01 -1.00219820e+01 -1.00219662e+01 -1.00216862e+01
 -1.00210633e+01 -1.00186425e+01 -1.00183535e+01 -1.00177976e+01
 -1.00169802e+01 -1.00156012e+01 -1.00093215e+01 -1.00084199e+01
 -1.00056101e+01 -1.00049117e+01 -8.86932979e-01 -8.52490000e-01
 -8.33568830e-01 -8.14425292e-01 -8.08180711e-01 -7.99414275e-01
 -7.46341758e-01 -7.23285389e-01 -7.02695801e-01 -6.90341544e-01
 -6.70259777e-01 -6.30873301e-01 -6.14362364e-01 -5.96105159e-01
 -5.47567777e-01 -5.39474744e-01 -5.35639150e-01 -5.28065593e-01
 -5.02799621e-01 -4.86083157e-01 -4.80633948e-01 -4.72210716e-01
 -4.53372243e-01 -4.41241964e-01 -4.38395134e-01 -4.16325822e-01
 -4.08277828e-01 -4.01858467e-01 -3.87672967e-01 -3.72959181e-01
 -3.59551669e-01 -3.57192348e-01 -3.56913942e-01 -3.49675222e-01
 -3.37116802e-01 -3.32783443e-01 -3.27125962e-01 -3.24292964e-01
 -3.15056691e-01 -3.08878859e-01 -3.04016095e-01 -2.92872134e-01
 -2.75668649e-01 -2.59787085e-01 -2.35361183e-01 -2.12923849e-01
 -1.84028658e-01 -1.74335733e-01 -1.68617171e-01 -1.50045542e-01
 -1.32578271e-01 -1.07706303e-02  5.49092660e-03  4.82815777e-02
  6.11033587e-02  9.95779228e-02  1.21855321e-01  1.77495383e-01
  1.82528028e-01  1.92210832e-01  1.98597825e-01  2.34439093e-01
  2.38268474e-01  2.50447985e-01  2.57589646e-01  2.79084395e-01
  3.06987484e-01  3.11111199e-01  3.17403062e-01  3.56376653e-01
  3.67714803e-01  3.79931144e-01  3.99370095e-01  4.15157573e-01
  4.24877149e-01  4.33196962e-01  4.55098660e-01  4.69991944e-01
  4.78524669e-01  4.93187013e-01  5.08843047e-01  5.41296461e-01
  5.47983435e-01  5.69541762e-01  5.86310334e-01  6.01937180e-01
  6.10187573e-01  6.18162859e-01  6.32078017e-01  6.83500713e-01
  6.95123409e-01  7.26658313e-01  7.83424435e-01  8.35739060e-01
  8.44416436e-01  8.79197836e-01  8.92419850e-01  9.59534883e-01
  1.07633297e+00  1.13942268e+00  1.18399705e+00  1.35442470e+00]
nelec by numeric integration = 145.999999720966
    CPU time for vxc     37.90 sec, wall time     15.68 sec
E1 = -4133.6827557462875  Ecoul = 1911.6954155854626  Exc = -124.9971483876844
cycle= 5 E= -835.117683959406  delta_E= -0.0013  |g|= 0.0323  |ddm|= 0.149
    CPU time for cycle= 5     38.36 sec, wall time     15.75 sec
  HOMO = -0.131980682491191  LUMO = -0.009835170349382
  mo_energy =
[-1.00367480e+01 -1.00331104e+01 -1.00320532e+01 -1.00296280e+01
 -1.00274090e+01 -1.00241094e+01 -1.00235234e+01 -1.00228740e+01
 -1.00224992e+01 -1.00224301e+01 -1.00207934e+01 -1.00205348e+01
 -1.00187016e+01 -1.00181318e+01 -1.00152667e+01 -1.00151340e+01
 -1.00143432e+01 -1.00140258e+01 -1.00111830e+01 -1.00109915e+01
 -1.00072629e+01 -1.00036216e+01 -8.85768479e-01 -8.51577425e-01
 -8.32443814e-01 -8.12923582e-01 -8.06725488e-01 -7.99304823e-01
 -7.45048295e-01 -7.22650431e-01 -7.01573686e-01 -6.89307593e-01
 -6.69565285e-01 -6.29867166e-01 -6.13311103e-01 -5.95052548e-01
 -5.46610025e-01 -5.39087192e-01 -5.35296041e-01 -5.27304306e-01
 -5.02562936e-01 -4.85300817e-01 -4.80363924e-01 -4.70995495e-01
 -4.52374054e-01 -4.40357098e-01 -4.37265444e-01 -4.15185921e-01
 -4.07527954e-01 -4.01375572e-01 -3.87087781e-01 -3.71866334e-01
 -3.59030973e-01 -3.56453269e-01 -3.55883418e-01 -3.49176152e-01
 -3.36240163e-01 -3.32276196e-01 -3.26462535e-01 -3.23187102e-01
 -3.14294865e-01 -3.08149269e-01 -3.03129239e-01 -2.91484181e-01
 -2.74821720e-01 -2.58871706e-01 -2.34361640e-01 -2.11940832e-01
 -1.83041258e-01 -1.73733359e-01 -1.67989730e-01 -1.49330062e-01
 -1.31980682e-01 -9.83517035e-03  6.28910573e-03  4.94517989e-02
  6.22961284e-02  1.00600989e-01  1.23018547e-01  1.78258635e-01
  1.83246831e-01  1.92714625e-01  2.00304778e-01  2.35487981e-01
  2.38811493e-01  2.51394920e-01  2.58693590e-01  2.80138267e-01
  3.07781280e-01  3.12497274e-01  3.18818559e-01  3.56525592e-01
  3.68909747e-01  3.80752724e-01  3.98874568e-01  4.15658589e-01
  4.25375713e-01  4.34525520e-01  4.56927814e-01  4.69541778e-01
  4.78544452e-01  4.94889987e-01  5.09714734e-01  5.41667311e-01
  5.49491111e-01  5.70147456e-01  5.86869580e-01  6.02591806e-01
  6.10209111e-01  6.18579487e-01  6.32523983e-01  6.85446019e-01
  6.94131585e-01  7.29107488e-01  7.85440992e-01  8.37832252e-01
  8.46064781e-01  8.80987790e-01  8.94810152e-01  9.57643657e-01
  1.07932598e+00  1.14262844e+00  1.18330832e+00  1.35293613e+00]
nelec by numeric integration = 145.99999971711196
    CPU time for vxc     37.85 sec, wall time     15.69 sec
E1 = -4133.544379552559  Ecoul = 1911.5541631494393  Exc = -124.99464338731346
cycle= 6 E= -835.11805520133  delta_E= -0.000371  |g|= 0.00892  |ddm|= 0.0587
    CPU time for cycle= 6     38.33 sec, wall time     15.77 sec
  HOMO = -0.131524001063913  LUMO = -0.00921443904622652
  mo_energy =
[-1.00367634e+01 -1.00322750e+01 -1.00311891e+01 -1.00291478e+01
 -1.00283425e+01 -1.00234333e+01 -1.00234240e+01 -1.00231987e+01
 -1.00227596e+01 -1.00225177e+01 -1.00199598e+01 -1.00189022e+01
 -1.00179348e+01 -1.00176294e+01 -1.00151737e+01 -1.00144987e+01
 -1.00138144e+01 -1.00135872e+01 -1.00108669e+01 -1.00084049e+01
 -1.00072129e+01 -1.00038533e+01 -8.85916892e-01 -8.51375489e-01
 -8.31838179e-01 -8.12667396e-01 -8.06881683e-01 -7.98653086e-01
 -7.44591640e-01 -7.22351499e-01 -7.01218933e-01 -6.89158182e-01
 -6.69076109e-01 -6.29717561e-01 -6.13018915e-01 -5.94805079e-01
 -5.46386336e-01 -5.38880697e-01 -5.34938490e-01 -5.27102184e-01
 -5.02210788e-01 -4.85096797e-01 -4.80052398e-01 -4.70674824e-01
 -4.52068539e-01 -4.39990072e-01 -4.37008880e-01 -4.15075179e-01
 -4.07493744e-01 -4.01306222e-01 -3.86695175e-01 -3.71706556e-01
 -3.58722110e-01 -3.56207943e-01 -3.55694779e-01 -3.48845151e-01
 -3.36184968e-01 -3.31922999e-01 -3.26301454e-01 -3.23226433e-01
 -3.13988130e-01 -3.07943397e-01 -3.02661044e-01 -2.91344984e-01
 -2.74474499e-01 -2.58634833e-01 -2.34062516e-01 -2.11617277e-01
 -1.82753507e-01 -1.73508502e-01 -1.67892512e-01 -1.49127769e-01
 -1.31524001e-01 -9.21443905e-03  6.52398204e-03  4.97177819e-02
  6.26709794e-02  1.00970247e-01  1.23359698e-01  1.78617946e-01
  1.83468456e-01  1.93429259e-01  2.00331784e-01  2.35520633e-01
  2.38914555e-01  2.51662077e-01  2.58838227e-01  2.80319687e-01
  3.07766095e-01  3.12345146e-01  3.19119132e-01  3.56737646e-01
  3.69120307e-01  3.80860092e-01  3.99196591e-01  4.16068593e-01
  4.25577678e-01  4.34586456e-01  4.56914365e-01  4.70070017e-01
  4.79000014e-01  4.94895307e-01  5.10019225e-01  5.42145887e-01
  5.49859380e-01  5.70491304e-01  5.87008427e-01  6.03004696e-01
  6.10605711e-01  6.18919304e-01  6.33012220e-01  6.85799785e-01
  6.95001526e-01  7.28781040e-01  7.85584731e-01  8.38529192e-01
  8.46593609e-01  8.81495619e-01  8.95377866e-01  9.58227898e-01
  1.07905989e+00  1.14186481e+00  1.18410951e+00  1.35298366e+00]
nelec by numeric integration = 145.9999997151258
    CPU time for vxc     37.88 sec, wall time     15.64 sec
E1 = -4133.5310561437445  Ecoul = 1911.5399923067782  Exc = -124.99382168330355
cycle= 7 E= -835.118080931167  delta_E= -2.57e-05  |g|= 0.00222  |ddm|= 0.0146
    CPU time for cycle= 7     38.28 sec, wall time     15.71 sec
  HOMO = -0.131481695835943  LUMO = -0.00915131428297604
  mo_energy =
[-1.00366504e+01 -1.00325532e+01 -1.00313928e+01 -1.00289664e+01
 -1.00281667e+01 -1.00238651e+01 -1.00233335e+01 -1.00232364e+01
 -1.00226448e+01 -1.00224958e+01 -1.00196691e+01 -1.00192851e+01
 -1.00177650e+01 -1.00177502e+01 -1.00149164e+01 -1.00141920e+01
 -1.00135654e+01 -1.00134410e+01 -1.00111789e+01 -1.00086121e+01
 -1.00067442e+01 -1.00035495e+01 -8.85795653e-01 -8.51333734e-01
 -8.31892216e-01 -8.12716043e-01 -8.06804582e-01 -7.98749731e-01
 -7.44522796e-01 -7.22266477e-01 -7.01198400e-01 -6.89089549e-01
 -6.69043008e-01 -6.29675497e-01 -6.12978329e-01 -5.94788797e-01
 -5.46349913e-01 -5.38843827e-01 -5.34942751e-01 -5.27064473e-01
 -5.02195952e-01 -4.85080738e-01 -4.80084528e-01 -4.70656751e-01
 -4.52018920e-01 -4.39986805e-01 -4.37004512e-01 -4.15045257e-01
 -4.07418059e-01 -4.01241144e-01 -3.86687217e-01 -3.71712276e-01
 -3.58681380e-01 -3.56161936e-01 -3.55672593e-01 -3.48813279e-01
 -3.36089602e-01 -3.31913439e-01 -3.26314233e-01 -3.23078323e-01
 -3.14027463e-01 -3.07955208e-01 -3.02704245e-01 -2.91337546e-01
 -2.74477850e-01 -2.58585003e-01 -2.33993261e-01 -2.11531344e-01
 -1.82728069e-01 -1.73468381e-01 -1.67811757e-01 -1.49043801e-01
 -1.31481696e-01 -9.15131428e-03  6.61101721e-03  4.97387874e-02
  6.26708866e-02  1.01060343e-01  1.23445290e-01  1.78628544e-01
  1.83482524e-01  1.93369750e-01  2.00379545e-01  2.35526450e-01
  2.38981207e-01  2.51663543e-01  2.58821691e-01  2.80391467e-01
  3.07812203e-01  3.12473893e-01  3.19173826e-01  3.56821149e-01
  3.69202767e-01  3.80942968e-01  3.99235626e-01  4.16103095e-01
  4.25581986e-01  4.34452901e-01  4.57050247e-01  4.70072378e-01
  4.78999972e-01  4.94951487e-01  5.09998945e-01  5.42152460e-01
  5.49939235e-01  5.70550562e-01  5.87065857e-01  6.03036266e-01
  6.10638299e-01  6.18952859e-01  6.33046396e-01  6.85953395e-01
  6.94950179e-01  7.28915710e-01  7.85664827e-01  8.38468158e-01
  8.46507101e-01  8.81277059e-01  8.95367550e-01  9.58282132e-01
  1.07915674e+00  1.14201930e+00  1.18394653e+00  1.35310791e+00]
nelec by numeric integration = 145.99999971601542
    CPU time for vxc     37.99 sec, wall time     15.72 sec
E1 = -4133.5258905207775  Ecoul = 1911.5348286465335  Exc = -124.99382529354466
cycle= 8 E= -835.118082578686  delta_E= -1.65e-06  |g|= 0.000651  |ddm|= 0.00397
    CPU time for cycle= 8     38.56 sec, wall time     15.81 sec
  HOMO = -0.131521616967881  LUMO = -0.00917505540366952
  mo_energy =
[-1.00367282e+01 -1.00325340e+01 -1.00314021e+01 -1.00290503e+01
 -1.00282250e+01 -1.00237781e+01 -1.00233617e+01 -1.00232708e+01
 -1.00227065e+01 -1.00225282e+01 -1.00197740e+01 -1.00192789e+01
 -1.00177372e+01 -1.00177043e+01 -1.00149494e+01 -1.00142560e+01
 -1.00136735e+01 -1.00136030e+01 -1.00110623e+01 -1.00085799e+01
 -1.00069003e+01 -1.00035808e+01 -8.85840395e-01 -8.51369154e-01
 -8.31905399e-01 -8.12727025e-01 -8.06825344e-01 -7.98755446e-01
 -7.44561375e-01 -7.22301676e-01 -7.01217934e-01 -6.89117318e-01
 -6.69067926e-01 -6.29704823e-01 -6.13006106e-01 -5.94807040e-01
 -5.46367322e-01 -5.38862446e-01 -5.34960346e-01 -5.27089244e-01
 -5.02218443e-01 -4.85096489e-01 -4.80094579e-01 -4.70673073e-01
 -4.52051432e-01 -4.40008023e-01 -4.37021620e-01 -4.15054296e-01
 -4.07441878e-01 -4.01267218e-01 -3.86705737e-01 -3.71712222e-01
 -3.58706605e-01 -3.56197405e-01 -3.55683467e-01 -3.48832370e-01
 -3.36105902e-01 -3.31933799e-01 -3.26322318e-01 -3.23087871e-01
 -3.14033168e-01 -3.07960004e-01 -3.02711209e-01 -2.91346526e-01
 -2.74489542e-01 -2.58604660e-01 -2.34027393e-01 -2.11565499e-01
 -1.82742737e-01 -1.73485550e-01 -1.67824644e-01 -1.49083175e-01
 -1.31521617e-01 -9.17505540e-03  6.57525066e-03  4.97273339e-02
  6.26690730e-02  1.01024167e-01  1.23408093e-01  1.78616706e-01
  1.83473371e-01  1.93362012e-01  2.00366100e-01  2.35530830e-01
  2.38975044e-01  2.51653730e-01  2.58834588e-01  2.80374134e-01
  3.07783473e-01  3.12461031e-01  3.19151845e-01  3.56784247e-01
  3.69175439e-01  3.80895924e-01  3.99211124e-01  4.16070515e-01
  4.25562944e-01  4.34504482e-01  4.57002914e-01  4.70051742e-01
  4.78989365e-01  4.94942491e-01  5.09981592e-01  5.42134385e-01
  5.49896311e-01  5.70517768e-01  5.87053918e-01  6.03008697e-01
  6.10608314e-01  6.18921658e-01  6.33011799e-01  6.85893841e-01
  6.94940275e-01  7.28888498e-01  7.85610540e-01  8.38446568e-01
  8.46497448e-01  8.81314805e-01  8.95351223e-01  9.58233286e-01
  1.07912591e+00  1.14199999e+00  1.18395926e+00  1.35304173e+00]
nelec by numeric integration = 145.99999971586152
    CPU time for vxc     37.98 sec, wall time     15.64 sec
E1 = -4133.5295181053225  Ecoul = 1911.5385297951163  Exc = -124.99389900339284
cycle= 9 E= -835.118082724496  delta_E= -1.46e-07  |g|= 0.000232  |ddm|= 0.00116
    CPU time for cycle= 9     38.54 sec, wall time     15.73 sec
  HOMO = -0.131529929193502  LUMO = -0.00917993723695112
  mo_energy =
[-1.00367064e+01 -1.00325342e+01 -1.00314065e+01 -1.00290143e+01
 -1.00282018e+01 -1.00237824e+01 -1.00233493e+01 -1.00232401e+01
 -1.00226913e+01 -1.00225289e+01 -1.00197639e+01 -1.00192652e+01
 -1.00177721e+01 -1.00177560e+01 -1.00149689e+01 -1.00142566e+01
 -1.00136812e+01 -1.00135949e+01 -1.00111015e+01 -1.00086066e+01
 -1.00068838e+01 -1.00036343e+01 -8.85832883e-01 -8.51364331e-01
 -8.31917897e-01 -8.12726823e-01 -8.06824007e-01 -7.98766222e-01
 -7.44564427e-01 -7.22299578e-01 -7.01220835e-01 -6.89115511e-01
 -6.69075454e-01 -6.29698064e-01 -6.13009434e-01 -5.94812552e-01
 -5.46370496e-01 -5.38864353e-01 -5.34969499e-01 -5.27089625e-01
 -5.02214036e-01 -4.85095443e-01 -4.80101130e-01 -4.70677275e-01
 -4.52046892e-01 -4.40013261e-01 -4.37018765e-01 -4.15059013e-01
 -4.07439878e-01 -4.01262892e-01 -3.86712616e-01 -3.71716420e-01
 -3.58707315e-01 -3.56196602e-01 -3.55685003e-01 -3.48834668e-01
 -3.36103596e-01 -3.31936500e-01 -3.26321799e-01 -3.23086641e-01
 -3.14034526e-01 -3.07962462e-01 -3.02720925e-01 -2.91346920e-01
 -2.74494091e-01 -2.58603424e-01 -2.34028584e-01 -2.11566648e-01
 -1.82748996e-01 -1.73491079e-01 -1.67826777e-01 -1.49081216e-01
 -1.31529929e-01 -9.17993724e-03  6.58020442e-03  4.97220772e-02
  6.26609247e-02  1.01022707e-01  1.23408576e-01  1.78611803e-01
  1.83469870e-01  1.93351427e-01  2.00365779e-01  2.35529414e-01
  2.38976455e-01  2.51648569e-01  2.58832072e-01  2.80375727e-01
  3.07785672e-01  3.12462420e-01  3.19148294e-01  3.56791009e-01
  3.69178935e-01  3.80897812e-01  3.99220413e-01  4.16065694e-01
  4.25570584e-01  4.34494109e-01  4.57007867e-01  4.70052128e-01
  4.78983312e-01  4.94933607e-01  5.09964490e-01  5.42120625e-01
  5.49894206e-01  5.70519053e-01  5.87053223e-01  6.03008989e-01
  6.10607712e-01  6.18920515e-01  6.33009517e-01  6.85895764e-01
  6.94930281e-01  7.28884296e-01  7.85626842e-01  8.38437555e-01
  8.46497092e-01  8.81302242e-01  8.95328969e-01  9.58243333e-01
  1.07913513e+00  1.14200293e+00  1.18394851e+00  1.35305646e+00]
nelec by numeric integration = 145.9999997158083
    CPU time for vxc     38.08 sec, wall time     15.67 sec
E1 = -4133.529584600294  Ecoul = 1911.5386004724246  Exc = -124.99390319914072
cycle= 10 E= -835.118082737907  delta_E= -1.34e-08  |g|= 0.000121  |ddm|= 0.000457
    CPU time for cycle= 10     38.51 sec, wall time     15.74 sec
  HOMO = -0.131531196950864  LUMO = -0.00918055091138125
  mo_energy =
[-1.00367122e+01 -1.00325372e+01 -1.00313982e+01 -1.00290345e+01
 -1.00282176e+01 -1.00237768e+01 -1.00233547e+01 -1.00232559e+01
 -1.00227034e+01 -1.00225287e+01 -1.00197689e+01 -1.00192611e+01
 -1.00177764e+01 -1.00177612e+01 -1.00149839e+01 -1.00142640e+01
 -1.00136770e+01 -1.00135881e+01 -1.00110911e+01 -1.00086107e+01
 -1.00068879e+01 -1.00035922e+01 -8.85837007e-01 -8.51367177e-01
 -8.31917374e-01 -8.12727984e-01 -8.06828255e-01 -7.98767791e-01
 -7.44566822e-01 -7.22300538e-01 -7.01218896e-01 -6.89117955e-01
 -6.69076217e-01 -6.29701922e-01 -6.13010191e-01 -5.94809925e-01
 -5.46373098e-01 -5.38865968e-01 -5.34970491e-01 -5.27093914e-01
 -5.02213944e-01 -4.85098095e-01 -4.80101939e-01 -4.70676644e-01
 -4.52052307e-01 -4.40010839e-01 -4.37021123e-01 -4.15058211e-01
 -4.07442897e-01 -4.01264319e-01 -3.86714699e-01 -3.71715499e-01
 -3.58708653e-01 -3.56197427e-01 -3.55685604e-01 -3.48837616e-01
 -3.36109210e-01 -3.31936901e-01 -3.26321211e-01 -3.23091265e-01
 -3.14033044e-01 -3.07962653e-01 -3.02722536e-01 -2.91350484e-01
 -2.74495018e-01 -2.58606672e-01 -2.34031612e-01 -2.11567106e-01
 -1.82745273e-01 -1.73491577e-01 -1.67831126e-01 -1.49084278e-01
 -1.31531197e-01 -9.18055091e-03  6.57697371e-03  4.97256778e-02
  6.26559769e-02  1.01021506e-01  1.23404509e-01  1.78609885e-01
  1.83471669e-01  1.93349924e-01  2.00362379e-01  2.35531151e-01
  2.38974431e-01  2.51647836e-01  2.58833172e-01  2.80368643e-01
  3.07784950e-01  3.12459014e-01  3.19144212e-01  3.56787454e-01
  3.69174489e-01  3.80897521e-01  3.99217296e-01  4.16065651e-01
  4.25569418e-01  4.34500492e-01  4.57002177e-01  4.70049155e-01
  4.78981987e-01  4.94938070e-01  5.09967339e-01  5.42119873e-01
  5.49892499e-01  5.70520137e-01  5.87051250e-01  6.03009099e-01
  6.10605154e-01  6.18917039e-01  6.33005876e-01  6.85894142e-01
  6.94927811e-01  7.28887497e-01  7.85616050e-01  8.38441949e-01
  8.46498168e-01  8.81311168e-01  8.95331711e-01  9.58242673e-01
  1.07912013e+00  1.14199863e+00  1.18394370e+00  1.35305010e+00]
nelec by numeric integration = 145.99999971584086
    CPU time for vxc     38.15 sec, wall time     15.68 sec
E1 = -4133.529737235113  Ecoul = 1911.538754771298  Exc = -124.99390486764456
cycle= 11 E= -835.118082742357  delta_E= -4.45e-09  |g|= 5.77e-05  |ddm|= 0.000263
    CPU time for cycle= 11     38.76 sec, wall time     15.77 sec
  HOMO = -0.131529646256781  LUMO = -0.0091776342469442
  mo_energy =
[-1.00367135e+01 -1.00325341e+01 -1.00313993e+01 -1.00290290e+01
 -1.00282142e+01 -1.00237804e+01 -1.00233548e+01 -1.00232533e+01
 -1.00227018e+01 -1.00225272e+01 -1.00197632e+01 -1.00192637e+01
 -1.00177676e+01 -1.00177516e+01 -1.00149689e+01 -1.00142601e+01
 -1.00136828e+01 -1.00135907e+01 -1.00110902e+01 -1.00085994e+01
 -1.00068886e+01 -1.00036050e+01 -8.85836988e-01 -8.51366293e-01
 -8.31914994e-01 -8.12727285e-01 -8.06827478e-01 -7.98763635e-01
 -7.44563755e-01 -7.22300389e-01 -7.01219073e-01 -6.89116950e-01
 -6.69073423e-01 -6.29700865e-01 -6.13008708e-01 -5.94810087e-01
 -5.46371654e-01 -5.38865388e-01 -5.34966908e-01 -5.27091169e-01
 -5.02214847e-01 -4.85096686e-01 -4.80099176e-01 -4.70676479e-01
 -4.52050830e-01 -4.40009913e-01 -4.37020492e-01 -4.15058272e-01
 -4.07442572e-01 -4.01265063e-01 -3.86711337e-01 -3.71715386e-01
 -3.58707242e-01 -3.56195054e-01 -3.55685330e-01 -3.48835319e-01
 -3.36107841e-01 -3.31936108e-01 -3.26320948e-01 -3.23091865e-01
 -3.14033772e-01 -3.07961978e-01 -3.02719359e-01 -2.91348683e-01
 -2.74493326e-01 -2.58605664e-01 -2.34028879e-01 -2.11566450e-01
 -1.82746122e-01 -1.73490419e-01 -1.67829667e-01 -1.49083074e-01
 -1.31529646e-01 -9.17763425e-03  6.57829463e-03  4.97245884e-02
  6.26612236e-02  1.01023059e-01  1.23407753e-01  1.78611418e-01
  1.83470920e-01  1.93353121e-01  2.00363690e-01  2.35529424e-01
  2.38973638e-01  2.51649077e-01  2.58831848e-01  2.80371007e-01
  3.07786960e-01  3.12458682e-01  3.19146163e-01  3.56787145e-01
  3.69174662e-01  3.80900856e-01  3.99216697e-01  4.16069711e-01
  4.25568635e-01  4.34498281e-01  4.57004133e-01  4.70051479e-01
  4.78984560e-01  4.94936529e-01  5.09970070e-01  5.42124712e-01
  5.49893219e-01  5.70518866e-01  5.87051156e-01  6.03009722e-01
  6.10607408e-01  6.18919860e-01  6.33009970e-01  6.85894650e-01
  6.94933884e-01  7.28885209e-01  7.85619597e-01  8.38440579e-01
  8.46497663e-01  8.81308703e-01  8.95333144e-01  9.58241157e-01
  1.07912754e+00  1.14199799e+00  1.18395028e+00  1.35304971e+00]
nelec by numeric integration = 145.9999997158267
    CPU time for vxc     38.27 sec, wall time     15.77 sec
E1 = -4133.529579655587  Ecoul = 1911.5385940839183  Exc = -124.99390176098478
cycle= 12 E= -835.118082743551  delta_E= -1.19e-09  |g|= 1.87e-05  |ddm|= 0.000111
    CPU time for cycle= 12     38.84 sec, wall time     15.86 sec
  HOMO = -0.131528915332518  LUMO = -0.00917667564450233
  mo_energy =
[-1.00367102e+01 -1.00325329e+01 -1.00313990e+01 -1.00290298e+01
 -1.00282140e+01 -1.00237778e+01 -1.00233538e+01 -1.00232532e+01
 -1.00226975e+01 -1.00225305e+01 -1.00197617e+01 -1.00192621e+01
 -1.00177653e+01 -1.00177512e+01 -1.00149744e+01 -1.00142559e+01
 -1.00136790e+01 -1.00135884e+01 -1.00110893e+01 -1.00085998e+01
 -1.00068886e+01 -1.00036058e+01 -8.85835915e-01 -8.51365843e-01
 -8.31914154e-01 -8.12726597e-01 -8.06826704e-01 -7.98763342e-01
 -7.44562836e-01 -7.22299820e-01 -7.01218774e-01 -6.89116588e-01
 -6.69072701e-01 -6.29700464e-01 -6.13008078e-01 -5.94809388e-01
 -5.46371370e-01 -5.38864514e-01 -5.34966672e-01 -5.27091091e-01
 -5.02214147e-01 -4.85096280e-01 -4.80098802e-01 -4.70676180e-01
 -4.52050114e-01 -4.40009305e-01 -4.37020132e-01 -4.15057661e-01
 -4.07441805e-01 -4.01264116e-01 -3.86711000e-01 -3.71715184e-01
 -3.58706861e-01 -3.56194561e-01 -3.55684913e-01 -3.48834711e-01
 -3.36107369e-01 -3.31935181e-01 -3.26320583e-01 -3.23091510e-01
 -3.14032755e-01 -3.07961597e-01 -3.02718965e-01 -2.91348689e-01
 -2.74493156e-01 -2.58605274e-01 -2.34028100e-01 -2.11566270e-01
 -1.82745707e-01 -1.73490346e-01 -1.67829617e-01 -1.49082697e-01
 -1.31528915e-01 -9.17667564e-03  6.57859015e-03  4.97251138e-02
  6.26604954e-02  1.01023325e-01  1.23408249e-01  1.78611861e-01
  1.83471513e-01  1.93353648e-01  2.00363884e-01  2.35530045e-01
  2.38974051e-01  2.51649668e-01  2.58832350e-01  2.80370854e-01
  3.07787199e-01  3.12459007e-01  3.19145988e-01  3.56788087e-01
  3.69174912e-01  3.80901482e-01  3.99217551e-01  4.16070246e-01
  4.25569175e-01  4.34498645e-01  4.57003774e-01  4.70052027e-01
  4.78985047e-01  4.94936735e-01  5.09970577e-01  5.42125276e-01
  5.49893947e-01  5.70519637e-01  5.87052289e-01  6.03010257e-01
  6.10608392e-01  6.18920357e-01  6.33010485e-01  6.85894162e-01
  6.94934498e-01  7.28885773e-01  7.85618926e-01  8.38442054e-01
  8.46498611e-01  8.81310010e-01  8.95334446e-01  9.58243188e-01
  1.07912547e+00  1.14199913e+00  1.18395031e+00  1.35305250e+00]
nelec by numeric integration = 145.99999971583068
    CPU time for vxc     38.25 sec, wall time     15.67 sec
E1 = -4133.529581094737  Ecoul = 1911.5385934309893  Exc = -124.99389966898876
cycle= 13 E= -835.118082743634  delta_E= -8.28e-11  |g|= 1.15e-05  |ddm|= 4.15e-05
    CPU time for cycle= 13     38.77 sec, wall time     15.75 sec
  HOMO = -0.13152935374457  LUMO = -0.00917713928445217
  mo_energy =
[-1.00367118e+01 -1.00325335e+01 -1.00313995e+01 -1.00290291e+01
 -1.00282135e+01 -1.00237792e+01 -1.00233536e+01 -1.00232524e+01
 -1.00226993e+01 -1.00225282e+01 -1.00197639e+01 -1.00192632e+01
 -1.00177670e+01 -1.00177523e+01 -1.00149726e+01 -1.00142584e+01
 -1.00136784e+01 -1.00135899e+01 -1.00110907e+01 -1.00086003e+01
 -1.00068879e+01 -1.00036051e+01 -8.85836134e-01 -8.51365974e-01
 -8.31914689e-01 -8.12727005e-01 -8.06826804e-01 -7.98763652e-01
 -7.44563481e-01 -7.22299992e-01 -7.01218898e-01 -6.89116633e-01
 -6.69073181e-01 -6.29700570e-01 -6.13008518e-01 -5.94809806e-01
 -5.46371315e-01 -5.38864828e-01 -5.34967073e-01 -5.27091127e-01
 -5.02214448e-01 -4.85096486e-01 -4.80099253e-01 -4.70676117e-01
 -4.52050195e-01 -4.40009777e-01 -4.37020169e-01 -4.15057838e-01
 -4.07441951e-01 -4.01264377e-01 -3.86711331e-01 -3.71715257e-01
 -3.58707076e-01 -3.56195160e-01 -3.55684978e-01 -3.48835123e-01
 -3.36107297e-01 -3.31935665e-01 -3.26320930e-01 -3.23091075e-01
 -3.14033292e-01 -3.07961786e-01 -3.02719284e-01 -2.91348574e-01
 -2.74493199e-01 -2.58605253e-01 -2.34028655e-01 -2.11566251e-01
 -1.82745886e-01 -1.73490397e-01 -1.67829420e-01 -1.49082840e-01
 -1.31529354e-01 -9.17713928e-03  6.57848246e-03  4.97249269e-02
  6.26606860e-02  1.01023232e-01  1.23407846e-01  1.78611789e-01
  1.83471297e-01  1.93353362e-01  2.00364015e-01  2.35529883e-01
  2.38974194e-01  2.51649331e-01  2.58832246e-01  2.80371245e-01
  3.07786703e-01  3.12459284e-01  3.19146388e-01  3.56787906e-01
  3.69175323e-01  3.80900352e-01  3.99217246e-01  4.16069320e-01
  4.25568995e-01  4.34498270e-01  4.57004210e-01  4.70051613e-01
  4.78984603e-01  4.94936774e-01  5.09969923e-01  5.42124480e-01
  5.49894023e-01  5.70519395e-01  5.87051917e-01  6.03009926e-01
  6.10607782e-01  6.18920081e-01  6.33009985e-01  6.85895000e-01
  6.94933666e-01  7.28885918e-01  7.85619470e-01  8.38441643e-01
  8.46498232e-01  8.81309012e-01  8.95333665e-01  9.58242135e-01
  1.07912665e+00  1.14199928e+00  1.18394990e+00  1.35305127e+00]
nelec by numeric integration = 145.99999971582983
    CPU time for vxc     38.15 sec, wall time     15.68 sec
E1 = -4133.529567264029  Ecoul = 1911.5385811085537  Exc = -124.99390117731059
cycle= 14 E= -835.118082743683  delta_E= -4.91e-11  |g|= 4.32e-06  |ddm|= 2.23e-05
    CPU time for cycle= 14     38.72 sec, wall time     15.77 sec
  HOMO = -0.131529575167266  LUMO = -0.00917721595271367
  mo_energy =
[-1.00367118e+01 -1.00325337e+01 -1.00313991e+01 -1.00290300e+01
 -1.00282146e+01 -1.00237787e+01 -1.00233547e+01 -1.00232536e+01
 -1.00226998e+01 -1.00225295e+01 -1.00197614e+01 -1.00192623e+01
 -1.00177671e+01 -1.00177522e+01 -1.00149738e+01 -1.00142572e+01
 -1.00136818e+01 -1.00135893e+01 -1.00110903e+01 -1.00086000e+01
 -1.00068890e+01 -1.00036058e+01 -8.85836689e-01 -8.51366321e-01
 -8.31914908e-01 -8.12727154e-01 -8.06827349e-01 -7.98763966e-01
 -7.44563346e-01 -7.22300201e-01 -7.01219115e-01 -6.89116977e-01
 -6.69073257e-01 -6.29700860e-01 -6.13008564e-01 -5.94809894e-01
 -5.46371756e-01 -5.38865060e-01 -5.34967060e-01 -5.27091458e-01
 -5.02214510e-01 -4.85096636e-01 -4.80099225e-01 -4.70676580e-01
 -4.52050633e-01 -4.40009725e-01 -4.37020489e-01 -4.15058109e-01
 -4.07442361e-01 -4.01264677e-01 -3.86711469e-01 -3.71715458e-01
 -3.58707218e-01 -3.56194864e-01 -3.55685236e-01 -3.48835115e-01
 -3.36107589e-01 -3.31935747e-01 -3.26320852e-01 -3.23091585e-01
 -3.14033322e-01 -3.07961998e-01 -3.02719528e-01 -2.91348964e-01
 -2.74493528e-01 -2.58605589e-01 -2.34028491e-01 -2.11566557e-01
 -1.82746098e-01 -1.73490644e-01 -1.67829795e-01 -1.49083160e-01
 -1.31529575e-01 -9.17721595e-03  6.57820364e-03  4.97247011e-02
  6.26603819e-02  1.01023030e-01  1.23407899e-01  1.78611437e-01
  1.83471076e-01  1.93353045e-01  2.00363484e-01  2.35529697e-01
  2.38973897e-01  2.51649170e-01  2.58832128e-01  2.80370694e-01
  3.07787054e-01  3.12458854e-01  3.19145699e-01  3.56787509e-01
  3.69174597e-01  3.80901334e-01  3.99217222e-01  4.16069979e-01
  4.25568882e-01  4.34498452e-01  4.57003441e-01  4.70051671e-01
  4.78984662e-01  4.94936369e-01  5.09969913e-01  5.42124782e-01
  5.49893267e-01  5.70519174e-01  5.87051750e-01  6.03009889e-01
  6.10607882e-01  6.18919849e-01  6.33010049e-01  6.85893960e-01
  6.94934083e-01  7.28885179e-01  7.85618775e-01  8.38441083e-01
  8.46497982e-01  8.81309353e-01  8.95333450e-01  9.58242382e-01
  1.07912569e+00  1.14199824e+00  1.18394977e+00  1.35305109e+00]
nelec by numeric integration = 145.99999971582918
    CPU time for vxc     38.42 sec, wall time     15.80 sec
E1 = -4133.529634891695  Ecoul = 1911.5386490274266  Exc = -124.99390146847293
Extra cycle  E= -835.118082743639  delta_E= 4.37e-11  |g|= 1.09e-05  |ddm|= 2.38e-05
    CPU time for scf_cycle    624.97 sec, wall time    254.37 sec
    CPU time for SCF    624.97 sec, wall time    254.37 sec
converged SCF energy = -835.118082743639
nelec by numeric integration = 145.99999971582918
    CPU time for vxc     38.25 sec, wall time     15.84 sec
 ** Mulliken pop  **
pop of  0 C 1s            1.99222
pop of  0 C 2s            1.11151
pop of  0 C 2px           0.96047
pop of  0 C 2py           0.98971
pop of  0 C 2pz           0.97147
pop of  1 C 1s            1.99138
pop of  1 C 2s            1.09843
pop of  1 C 2px           0.98826
pop of  1 C 2py           1.00217
pop of  1 C 2pz           0.91493
pop of  2 C 1s            1.99096
pop of  2 C 2s            1.16813
pop of  2 C 2px           0.98882
pop of  2 C 2py           0.92236
pop of  2 C 2pz           0.99498
pop of  3 C 1s            1.99270
pop of  3 C 2s            1.08670
pop of  3 C 2px           1.02185
pop of  3 C 2py           0.97630
pop of  3 C 2pz           1.04205
pop of  4 C 1s            1.99067
pop of  4 C 2s            1.10172
pop of  4 C 2px           1.02932
pop of  4 C 2py           0.97427
pop of  4 C 2pz           1.01818
pop of  5 C 1s            1.99095
pop of  5 C 2s            1.15023
pop of  5 C 2px           1.00146
pop of  5 C 2py           0.95721
pop of  5 C 2pz           1.00522
pop of  6 C 1s            1.99108
pop of  6 C 2s            1.20273
pop of  6 C 2px           0.96864
pop of  6 C 2py           0.95713
pop of  6 C 2pz           0.92700
pop of  7 C 1s            1.99103
pop of  7 C 2s            1.18979
pop of  7 C 2px           0.98803
pop of  7 C 2py           0.96388
pop of  7 C 2pz           0.93371
pop of  8 C 1s            1.99208
pop of  8 C 2s            1.12968
pop of  8 C 2px           0.96624
pop of  8 C 2py           0.98108
pop of  8 C 2pz           0.93787
pop of  9 C 1s            1.99093
pop of  9 C 2s            1.16726
pop of  9 C 2px           0.98022
pop of  9 C 2py           0.92478
pop of  9 C 2pz           0.93249
pop of  10 C 1s           1.99127
pop of  10 C 2s           1.05156
pop of  10 C 2px          1.03655
pop of  10 C 2py          1.01551
pop of  10 C 2pz          1.00000
pop of  11 C 1s           1.99153
pop of  11 C 2s           1.21481
pop of  11 C 2px          0.96084
pop of  11 C 2py          0.92398
pop of  11 C 2pz          0.92341
pop of  12 C 1s           1.99069
pop of  12 C 2s           1.12827
pop of  12 C 2px          0.98692
pop of  12 C 2py          0.94047
pop of  12 C 2pz          0.90931
pop of  13 C 1s           1.99125
pop of  13 C 2s           1.07131
pop of  13 C 2px          0.97631
pop of  13 C 2py          1.00303
pop of  13 C 2pz          0.99871
pop of  14 C 1s           1.99152
pop of  14 C 2s           0.98914
pop of  14 C 2px          1.02144
pop of  14 C 2py          1.05062
pop of  14 C 2pz          1.06677
pop of  15 C 1s           1.99149
pop of  15 C 2s           1.07215
pop of  15 C 2px          0.99733
pop of  15 C 2py          1.00127
pop of  15 C 2pz          1.02223
pop of  16 C 1s           1.99230
pop of  16 C 2s           0.93468
pop of  16 C 2px          1.02311
pop of  16 C 2py          1.11547
pop of  16 C 2pz          0.98381
pop of  17 C 1s           1.99155
pop of  17 C 2s           1.19881
pop of  17 C 2px          0.92767
pop of  17 C 2py          0.92570
pop of  17 C 2pz          0.91194
pop of  18 C 1s           1.99084
pop of  18 C 2s           1.08736
pop of  18 C 2px          0.99548
pop of  18 C 2py          0.97912
pop of  18 C 2pz          0.99342
pop of  19 C 1s           1.99078
pop of  19 C 2s           1.10778
pop of  19 C 2px          1.00132
pop of  19 C 2py          0.97539
pop of  19 C 2pz          1.00154
pop of  20 C 1s           1.99069
pop of  20 C 2s           1.11476
pop of  20 C 2px          0.99038
pop of  20 C 2py          0.98225
pop of  20 C 2pz          0.98470
pop of  21 C 1s           1.99083
pop of  21 C 2s           1.08736
pop of  21 C 2px          0.99893
pop of  21 C 2py          0.99719
pop of  21 C 2pz          0.99956
pop of  22 H 1s           0.91520
pop of  23 H 1s           0.87382
pop of  24 H 1s           0.89666
pop of  25 H 1s           0.88990
pop of  26 H 1s           0.92106
pop of  27 H 1s           0.93003
pop of  28 H 1s           0.94596
pop of  29 H 1s           0.96443
pop of  30 H 1s           0.90052
pop of  31 H 1s           0.92890
pop of  32 H 1s           0.94245
pop of  33 H 1s           0.92535
pop of  34 H 1s           0.91640
pop of  35 H 1s           0.93463
 ** Mulliken atomic charges  **
charge of    0C =     -0.02537
charge of    1C =      0.00483
charge of    2C =     -0.06525
charge of    3C =     -0.11960
charge of    4C =     -0.11415
charge of    5C =     -0.10508
charge of    6C =     -0.04659
charge of    7C =     -0.06644
charge of    8C =     -0.00696
charge of    9C =      0.00432
charge of   10C =     -0.09490
charge of   11C =     -0.01456
charge of   12C =      0.04433
charge of   13C =     -0.04062
charge of   14C =     -0.11950
charge of   15C =     -0.08448
charge of   16C =     -0.04937
charge of   17C =      0.04434
charge of   18C =     -0.04620
charge of   19C =     -0.07681
charge of   20C =     -0.06278
charge of   21C =     -0.07387
charge of   22H =      0.08480
charge of   23H =      0.12618
charge of   24H =      0.10334
charge of   25H =      0.11010
charge of   26H =      0.07894
charge of   27H =      0.06997
charge of   28H =      0.05404
charge of   29H =      0.03557
charge of   30H =      0.09948
charge of   31H =      0.07110
charge of   32H =      0.05755
charge of   33H =      0.07465
charge of   34H =      0.08360
charge of   35H =      0.06537
Dipole moment(X, Y, Z, Debye):  0.11723,  1.00912, -0.33088
nelec by numeric integration = 145.99999971582918
    CPU time for vxc     37.30 sec, wall time     15.48 sec
E1 = -4133.529634891695  Ecoul = 1911.5386490274268  Exc = -124.99390146847293
nelec by numeric integration = 145.99999971582918
    CPU time for vxc     37.16 sec, wall time     15.52 sec
E1 = -4133.529634891695  Ecoul = 1911.5386490274268  Exc = -124.99390146847293
