System: uname_result(system='Linux', node='cosmopc18', release='5.15.0-97-generic', version='#107-Ubuntu SMP Wed Feb 7 13:26:48 UTC 2024', machine='x86_64')  Threads 4
Python 3.11.8 (main, Feb 26 2024, 21:39:34) [GCC 11.2.0]
numpy 1.26.4  scipy 1.11.4
Date: Tue Apr  9 11:45:56 2024
PySCF version 2.3.0
PySCF path  /home/saade/miniconda3/envs/tutorial/lib/python3.11/site-packages/pyscf

[ENV] PYSCFAD_BACKEND torch
[CONFIG] conf_file None
[INPUT] verbose = 5
[INPUT] max_memory = 4000 
[INPUT] num. atoms = 36
[INPUT] num. electrons = 146
[INPUT] charge = 0
[INPUT] spin (= nelec alpha-beta = 2S) = 0
[INPUT] symmetry False subgroup None
[INPUT] Mole.unit = angstrom
[INPUT] Symbol           X                Y                Z      unit          X                Y                Z       unit  Magmom
[INPUT]  1 C      0.141666000000   3.635792000000   0.640581000000 AA    0.267709941163   6.870651125885   1.210522650600 Bohr   0.0
[INPUT]  2 C     -0.052887000000   3.747134000000  -0.895854000000 AA   -0.099941945550   7.081057012046  -1.692918707596 Bohr   0.0
[INPUT]  3 C      0.159291000000   4.976017000000   1.537927000000 AA    0.301016364108   9.403309321180   2.906260829574 Bohr   0.0
[INPUT]  4 C      0.093974000000   2.503279000000   1.342128000000 AA    0.177585122830   4.730511723375   2.536254344110 Bohr   0.0
[INPUT]  5 C     -0.147929000000   4.970343000000  -1.509208000000 AA   -0.279545295881   9.392587015149  -2.851989785003 Bohr   0.0
[INPUT]  6 C     -0.024875000000   2.383056000000  -1.397098000000 AA   -0.047006937349   4.503323179502  -2.640132589178 Bohr   0.0
[INPUT]  7 C      0.017932000000   6.006215000000  -0.735907000000 AA    0.033886568866  11.350101395255  -1.390662683150 Bohr   0.0
[INPUT]  8 C     -0.026505000000   6.178883000000   0.834059000000 AA   -0.050087190932  11.676396625731   1.576143081729 Bohr   0.0
[INPUT]  9 C     -0.009841000000   1.195356000000   0.787665000000 AA   -0.018596794792   2.258895461356   1.488471127906 Bohr   0.0
[INPUT] 10 C      0.033787000000   1.222877000000  -0.629362000000 AA    0.063848176571   2.310902614030  -1.189321813209 Bohr   0.0
[INPUT] 11 C      0.124474000000  -0.030331000000   1.167418000000 AA    0.235221769629  -0.057317283084   2.206100292887 Bohr   0.0
[INPUT] 12 C      0.105660000000  -0.009178000000  -1.419336000000 AA    0.199668462322  -0.017343906371  -2.682156318736 Bohr   0.0
[INPUT] 13 C      0.149100000000  -1.397321000000   0.735327000000 AA    0.281758165173  -2.640553998103   1.389566641998 Bohr   0.0
[INPUT] 14 C     -0.084898000000  -1.310973000000  -0.853681000000 AA   -0.160433968523  -2.477379926699  -1.613223287745 Bohr   0.0
[INPUT] 15 C     -0.030771000000  -2.325195000000   1.445553000000 AA   -0.058148762579  -4.393981736208   2.731699268543 Bohr   0.0
[INPUT] 16 C      0.093499000000  -2.341914000000  -1.350735000000 AA    0.176687502921  -4.425576067285  -2.552519216864 Bohr   0.0
[INPUT] 17 C     -0.026712000000  -3.514061000000   0.639706000000 AA   -0.050478364239  -6.640612875015   1.208869140241 Bohr   0.0
[INPUT] 18 C     -0.010286000000  -3.435412000000  -0.671002000000 AA   -0.019437722917  -6.491987805044  -1.268010009035 Bohr   0.0
[INPUT] 19 C     -0.128470000000  -4.972535000000   1.400759000000 AA   -0.242773115223  -9.396729294814   2.647050876520 Bohr   0.0
[INPUT] 20 C      0.040752000000  -4.991082000000  -1.491423000000 AA    0.077010119028  -9.431778045246  -2.818381005877 Bohr   0.0
[INPUT] 21 C      0.073527000000  -6.047208000000   0.658624000000 AA    0.138945892761 -11.427566938279   1.244618979066 Bohr   0.0
[INPUT] 22 C      0.052350000000  -6.022439000000  -0.675985000000 AA    0.098927162621 -11.380760311899  -1.277426514314 Bohr   0.0
[INPUT] 23 H     -0.015220000000   4.861420000000   2.505748000000 AA   -0.028761631616   9.186752376483   4.735177457177 Bohr   0.0
[INPUT] 24 H     -0.127402000000   2.343110000000   2.452303000000 AA   -0.240754887722   4.427836179730   4.634181044449 Bohr   0.0
[INPUT] 25 H     -0.072262000000   4.749667000000  -2.479769000000 AA   -0.136555389213   8.975569812885  -4.686084262187 Bohr   0.0
[INPUT] 26 H     -0.037982000000   2.332902000000  -2.538516000000 AA   -0.071775577663   4.408545855450  -4.797100002826 Bohr   0.0
[INPUT] 27 H      0.015533000000   6.976167000000  -1.386462000000 AA    0.029353115893  13.183045029229  -2.620033462117 Bohr   0.0
[INPUT] 28 H      0.034155000000   6.886380000000   1.382321000000 AA    0.064543595785  13.013372189682   2.612208106235 Bohr   0.0
[INPUT] 29 H     -0.168497000000   0.129527000000   2.527422000000 AA   -0.318413182811   0.244770555737   4.776135381200 Bohr   0.0
[INPUT] 30 H     -0.093446000000  -0.130940000000  -2.579717000000 AA   -0.176587347436  -0.247440738751  -4.874958608885 Bohr   0.0
[INPUT] 31 H      0.149902000000  -2.520605000000   2.452984000000 AA    0.283273725525  -4.763253118209   4.635467947940 Bohr   0.0
[INPUT] 32 H      0.049241000000  -2.475911000000  -2.489072000000 AA    0.093052004100  -4.678793698798  -4.703664384323 Bohr   0.0
[INPUT] 33 H      0.069836000000  -4.912116000000   2.418895000000 AA    0.131970913635  -9.282553932094   4.571049074080 Bohr   0.0
[INPUT] 34 H     -0.018669000000  -4.863163000000  -2.600547000000 AA   -0.035279297020  -9.190046169118  -4.914321604059 Bohr   0.0
[INPUT] 35 H     -0.057453000000  -6.978530000000   1.279960000000 AA   -0.108570435035 -13.187510452061   2.418773850398 Bohr   0.0
[INPUT] 36 H     -0.199683000000  -6.907995000000  -1.429727000000 AA   -0.377346181732 -13.054218619865  -2.701792462896 Bohr   0.0
[INPUT] ---------------- BASIS SET ---------------- 
[INPUT] l, kappa, [nprim/nctr], expnt,             c_1 c_2 ...
[INPUT] H
[INPUT] 0    0    [3    /1   ]  3.42525091        0.15432897
                                0.62391373        0.53532814
                                0.1688554         0.44463454
[INPUT] C
[INPUT] 0    0    [3    /1   ]  71.616837         0.15432897
                                13.045096         0.53532814
                                3.5305122         0.44463454
[INPUT] 0    0    [3    /1   ]  2.9412494         -0.09996723
                                0.6834831         0.39951283
                                0.2222899         0.70011547
[INPUT] 1    0    [3    /1   ]  2.9412494         0.15591627
                                0.6834831         0.60768372
                                0.2222899         0.39195739

nuclear repulsion = 1500.12683392657
number of shells = 80
number of NR pGTOs = 372
number of NR cGTOs = 124
basis = sto3g
ecp = {}
CPU time:     18178.62
atom C rad-grids = 99, ang-grids = [ 50  50  50  50  50  50  50  50  50  50  50  50  50  50  50  50  50  50
  50  50  50  50  50  50  50  50  50  50  50  50  50  86  86  86  86  86
  86  86  86  86  86  86  86 434 434 434 434 434 434 434 434 434 590 590
 590 590 590 590 590 590 590 590 590 590 590 590 590 590 590 590 590 590
 590 590 590 590 590 590 590 434 434 434 434 434 434 434 434 434 434 434
 434 434 434 434 434 434 434 434 434]
atom H rad-grids = 99, ang-grids = [ 50  50  50  50  50  50  50  50  50  50  50  50  50  50  50  50  50  50
  50  50  50  50  50  50  50  50  50  50  86  86  86  86  86  86  86 434
 434 434 434 434 434 434 434 590 590 590 590 590 590 590 590 590 590 590
 590 590 590 590 590 590 590 590 590 590 590 590 590 590 590 434 434 434
 434 434 434 434 434 434 434 434 434 434 434 434 434 434 434 434 434 434
 434 434 434 434 434 434 434 434 434]
tot_boxes 5270, boxes in each direction [ 8 29 15]
Padding 0 grids
tot grids = 1157832


******** <class 'pyscf.dft.rks.RKS'> ********
method = RKS
initial guess = minao
damping factor = 0
level_shift factor = 0
DIIS = <class 'pyscf.scf.diis.CDIIS'>
diis_start_cycle = 1
diis_space = 8
SCF conv_tol = 1e-10
SCF conv_tol_grad = None
SCF max_cycles = 50
direct_scf = True
direct_scf_tol = 1e-13
chkfile to save SCF result = /home/saade/mlelec/tutorials/tmpyf88c_8g
max_memory 4000 MB (current use 636 MB)
XC library pyscf.dft.libxc version 6.1.0
    S. Lehtola, C. Steigemann, M. J.T. Oliveira, and M. A.L. Marques.,  SoftwareX 7, 1–5 (2018)
XC functionals = b3lypg
    P. J. Stephens, F. J. Devlin, C. F. Chabalowski, and M. J. Frisch.,  J. Phys. Chem. 98, 11623 (1994)
radial grids: 
    Treutler-Ahlrichs [JCP 102, 346 (1995); DOI:10.1063/1.469408] (M4) radial grids
    
becke partition: Becke, JCP 88, 2547 (1988); DOI:10.1063/1.454033
pruning grids: <function nwchem_prune at 0x7f9db5616ca0>
grids dens level: 3
symmetrized grids: False
atomic radii adjust function: <function treutler_atomic_radii_adjust at 0x7f9db5617380>
User specified grid scheme (99, 590)
small_rho_cutoff = 1e-07
Set gradient conv threshold to 1e-05
Initial guess from minao.
nelec by numeric integration = 145.27008706453807
    CPU time for vxc     37.98 sec, wall time     15.84 sec
E1 = -4100.37643837711  Ecoul = 1884.7969842282162  Exc = -126.09217693350708
init E= -841.544797155832
cond(S) = 26.247770737595417
    CPU time for initialize scf     47.58 sec, wall time     18.17 sec
  HOMO = -0.208438183148463  LUMO = -0.145740896606089
  mo_energy =
[-1.01602071e+01 -1.01404531e+01 -1.01392507e+01 -1.01324585e+01
 -1.01234062e+01 -1.01162673e+01 -1.01112830e+01 -1.01052808e+01
 -1.01032481e+01 -1.01027930e+01 -1.01025908e+01 -1.01001177e+01
 -1.00960216e+01 -1.00937248e+01 -1.00929876e+01 -1.00900784e+01
 -1.00880766e+01 -1.00875712e+01 -1.00862304e+01 -1.00828053e+01
 -1.00818330e+01 -1.00778308e+01 -1.13394261e+00 -1.06384477e+00
 -1.01384791e+00 -1.00304655e+00 -9.91378121e-01 -9.29336672e-01
 -9.16202485e-01 -8.85455815e-01 -8.65994365e-01 -8.59363324e-01
 -7.97042171e-01 -7.61239381e-01 -7.22838382e-01 -7.00651126e-01
 -6.92603221e-01 -6.73989129e-01 -6.61035679e-01 -6.53058972e-01
 -5.96165952e-01 -5.88869131e-01 -5.69875533e-01 -5.56864254e-01
 -5.39468404e-01 -5.29921060e-01 -5.19984969e-01 -5.12559195e-01
 -4.98829415e-01 -4.93304492e-01 -4.76166681e-01 -4.65866941e-01
 -4.59841525e-01 -4.50243669e-01 -4.41477100e-01 -4.27969201e-01
 -4.24245908e-01 -4.17084596e-01 -4.03051973e-01 -3.98797563e-01
 -3.81555778e-01 -3.79638126e-01 -3.66591219e-01 -3.57902107e-01
 -3.44683977e-01 -3.25695463e-01 -3.16833207e-01 -3.08930095e-01
 -2.95888160e-01 -2.86657267e-01 -2.79235290e-01 -2.64744958e-01
 -2.08438183e-01 -1.45740897e-01 -8.02631881e-02 -6.92477450e-02
 -5.89460695e-02 -2.22055817e-02 -7.23548340e-03  2.10798627e-02
  5.10136701e-02  6.78769967e-02  9.04048474e-02  9.70495099e-02
  1.21569510e-01  1.39840081e-01  1.48014259e-01  1.72524051e-01
  1.81113856e-01  1.86570663e-01  1.99115593e-01  2.08274761e-01
  2.24455526e-01  2.33857120e-01  2.49618101e-01  2.60339733e-01
  2.83190203e-01  3.00753746e-01  3.07720783e-01  3.35769652e-01
  3.44201202e-01  3.78910827e-01  3.92427403e-01  4.00235489e-01
  4.17112412e-01  4.26209338e-01  4.37863787e-01  4.46283166e-01
  4.62313559e-01  4.72451793e-01  5.06171031e-01  5.31371811e-01
  5.55070687e-01  5.69489010e-01  5.95446089e-01  6.35322874e-01
  6.46486579e-01  6.58548618e-01  6.76940218e-01  7.15831404e-01
  7.34639624e-01  7.53908460e-01  8.14741001e-01  9.15935472e-01]
nelec by numeric integration = 146.0000014091955
    CPU time for vxc     38.69 sec, wall time     15.92 sec
E1 = -4115.710099076561  Ecoul = 1904.59939646151  Exc = -124.73805965039794
cycle= 1 E= -835.72192833888  delta_E= 5.82  |g|= 0.282  |ddm|= 9.28
    CPU time for cycle= 1     39.07 sec, wall time     15.99 sec
  HOMO = -0.0806113327868049  LUMO = 0.010088929276113
  mo_energy =
[-10.07121861 -10.03367336 -10.02986866 -10.01936276 -10.01769281
 -10.00242787  -9.99597134  -9.99346432  -9.9913894   -9.99109763
  -9.97965854  -9.97739458  -9.97399173  -9.97291613  -9.96692068
  -9.95549856  -9.95284311  -9.94919902  -9.94641034  -9.94468634
  -9.94035341  -9.93074968  -0.83631194  -0.82031299  -0.78457213
  -0.77385338  -0.74884305  -0.74417863  -0.71694277  -0.68620671
  -0.67951152  -0.66805392  -0.62522718  -0.60328799  -0.57345938
  -0.5668073   -0.55583083  -0.5353455   -0.51721056  -0.5047171
  -0.4802598   -0.46220635  -0.45993434  -0.44496478  -0.42780191
  -0.42434216  -0.41471983  -0.39881161  -0.39205461  -0.37847087
  -0.36276409  -0.35291892  -0.34469198  -0.34443106  -0.33209921
  -0.32497544  -0.31882704  -0.30619709  -0.29263969  -0.28741292
  -0.27484036  -0.26551755  -0.26022513  -0.2462349   -0.2399443
  -0.22731886  -0.20625568  -0.20513662  -0.17729338  -0.17040949
  -0.16008223  -0.15410521  -0.08061133   0.01008893   0.06255819
   0.0760019    0.08977794   0.13569911   0.15642106   0.19410494
   0.2154617    0.22928395   0.2469558    0.25616933   0.26387676
   0.28678676   0.30564085   0.31041863   0.31521958   0.33644051
   0.35060962   0.35913611   0.37576264   0.39802533   0.40479611
   0.41306412   0.42063924   0.45350022   0.4630829    0.47785245
   0.49658168   0.51564445   0.53120644   0.54996716   0.55593508
   0.57413354   0.59031948   0.61401428   0.61655528   0.62691319
   0.67367208   0.69154474   0.72233791   0.73200789   0.74590948
   0.77340501   0.79340796   0.79471357   0.84653615   0.85151701
   0.92523669   0.94831065   1.01450941   1.13006177]
nelec by numeric integration = 146.00000142640707
    CPU time for vxc     38.07 sec, wall time     15.78 sec
E1 = -4109.748546386982  Ecoul = 1898.4970465730753  Exc = -124.5914416404402
cycle= 2 E= -835.716107527778  delta_E= 0.00582  |g|= 0.322  |ddm|= 0.989
    CPU time for cycle= 2     38.49 sec, wall time     15.85 sec
  HOMO = -0.107423710129066  LUMO = -0.0104050568941124
  mo_energy =
[-10.03474857 -10.03314426 -10.02294103 -10.02281902 -10.01733
 -10.01510228 -10.01387247 -10.01360699 -10.01333231 -10.01172749
 -10.01034772 -10.00951878 -10.00678784 -10.00437393 -10.00185308
  -9.99830001  -9.9982124   -9.99660718  -9.99471261  -9.99137802
  -9.99117877  -9.99109983  -0.88384019  -0.82878745  -0.79811574
  -0.79066614  -0.78481504  -0.73781251  -0.73051316  -0.70845659
  -0.69423993  -0.69243477  -0.64199974  -0.61463493  -0.5869001
  -0.57651283  -0.56551362  -0.54806984  -0.5405438   -0.53031827
  -0.48899643  -0.48177415  -0.46626511  -0.45329265  -0.44534568
  -0.43391544  -0.4240588   -0.41782969  -0.3970158   -0.38825564
  -0.38381323  -0.38112832  -0.37105321  -0.35765501  -0.34559812
  -0.33629739  -0.32959136  -0.32528456  -0.3069703   -0.29517369
  -0.28915331  -0.28524651  -0.28035676  -0.27421994  -0.25460484
  -0.2312199   -0.22596971  -0.21645638  -0.20338491  -0.18986167
  -0.17706186  -0.17354636  -0.10742371  -0.01040506   0.05456565
   0.07116218   0.07669899   0.11675101   0.13883904   0.16611435
   0.19290188   0.2054551    0.23458608   0.23709963   0.26210268
   0.28698042   0.29327876   0.29779399   0.3132874    0.32311905
   0.34130629   0.34417572   0.36538439   0.3743153    0.38096077
   0.39849469   0.4086309    0.43640559   0.44715484   0.45188934
   0.48723729   0.51845971   0.52250127   0.53142613   0.54279604
   0.56597075   0.57383931   0.58556706   0.59792924   0.61215235
   0.65176968   0.67118558   0.69619098   0.71119986   0.73764581
   0.77129103   0.78446846   0.79198199   0.81712444   0.85773868
   0.88274567   0.903312     0.9699159    1.06989062]
nelec by numeric integration = 146.00000141400972
    CPU time for vxc     38.34 sec, wall time     15.87 sec
E1 = -4112.404198230709  Ecoul = 1901.1598633426224  Exc = -124.62977919993071
cycle= 3 E= -835.747280161449  delta_E= -0.0312  |g|= 0.155  |ddm|= 0.736
    CPU time for cycle= 3     38.95 sec, wall time     15.96 sec
  HOMO = -0.108510120158349  LUMO = -0.0125724321008831
  mo_energy =
[-10.03570556 -10.02958309 -10.02872954 -10.02562993 -10.02411546
 -10.02309996 -10.02295639 -10.02240044 -10.02091213 -10.0193701
 -10.01880047 -10.01803591 -10.01626659 -10.01526168 -10.01493859
 -10.01273317 -10.01141118 -10.00954219 -10.00780306 -10.00519691
  -9.99711407  -9.98516243  -0.8837623   -0.83340906  -0.80545646
  -0.79778676  -0.78904778  -0.7456537   -0.7368772   -0.709553
  -0.69864978  -0.69673232  -0.64382775  -0.61989433  -0.59143127
  -0.57985691  -0.57075337  -0.55454703  -0.54157712  -0.5320402
  -0.49529245  -0.48282299  -0.47043245  -0.45631183  -0.44684036
  -0.43697669  -0.4312534   -0.42134831  -0.40328743  -0.39107521
  -0.38643962  -0.38237195  -0.3712423   -0.36091656  -0.34822506
  -0.33840023  -0.33510471  -0.32851027  -0.3124372   -0.30074791
  -0.29092901  -0.28862691  -0.28673981  -0.28448512  -0.2599743
  -0.23720881  -0.23050053  -0.22217728  -0.20654249  -0.19416264
  -0.18581553  -0.17812256  -0.10851012  -0.01257243   0.04903347
   0.06350978   0.07059812   0.11104257   0.12996601   0.16586432
   0.18718571   0.20478266   0.22582149   0.23348983   0.25943411
   0.27639024   0.28149547   0.29760287   0.31345578   0.31727123
   0.3310056    0.34829722   0.36713989   0.37047993   0.37557736
   0.39582993   0.4080687    0.43824844   0.4459452    0.45221878
   0.48021847   0.51632332   0.51976842   0.52515498   0.5399417
   0.56749769   0.56894926   0.58385902   0.59549527   0.60357958
   0.64388155   0.66724146   0.69659389   0.70745112   0.72845339
   0.76780543   0.77319267   0.77918584   0.81444157   0.84222974
   0.87845355   0.89955236   0.96639983   1.07113427]
nelec by numeric integration = 146.00000140078205
    CPU time for vxc     38.28 sec, wall time     15.81 sec
E1 = -4112.563042943251  Ecoul = 1901.3233218108383  Exc = -124.64218838286648
cycle= 4 E= -835.75507558871  delta_E= -0.0078  |g|= 0.063  |ddm|= 0.34
    CPU time for cycle= 4     39.03 sec, wall time     15.92 sec
  HOMO = -0.109584239519513  LUMO = -0.0134281336287024
  mo_energy =
[-10.0331331  -10.03037516 -10.02558706 -10.02453676 -10.02269852
 -10.02151129 -10.02063634 -10.02010598 -10.01961978 -10.01870072
 -10.01859814 -10.01767684 -10.01646361 -10.01624889 -10.01252102
 -10.01135794 -10.0091593  -10.00715991 -10.0049168  -10.00402392
 -10.00243955  -9.99885483  -0.88225044  -0.83172929  -0.80455952
  -0.79677627  -0.78787551  -0.74491182  -0.73675675  -0.70985099
  -0.69776493  -0.69687026  -0.64415515  -0.61997437  -0.59046032
  -0.57916941  -0.57043255  -0.55301621  -0.54219243  -0.53141076
  -0.49351079  -0.48222865  -0.47069847  -0.45475248  -0.44705472
  -0.43696934  -0.43089137  -0.4209601   -0.40277167  -0.39151178
  -0.38578679  -0.38203945  -0.37160925  -0.36161121  -0.34772546
  -0.33951048  -0.33536992  -0.32933901  -0.31197001  -0.29956858
  -0.29036238  -0.28828663  -0.28626618  -0.28389225  -0.26055285
  -0.23697218  -0.22999298  -0.22198778  -0.2049948   -0.19444167
  -0.18456533  -0.17860908  -0.10958424  -0.01342813   0.04879042
   0.0650884    0.06980667   0.11062491   0.13155878   0.16560883
   0.18882555   0.2044196    0.22762757   0.23409559   0.26083643
   0.27623143   0.28333846   0.29769462   0.31317452   0.31745289
   0.33235531   0.34641722   0.36640494   0.36983584   0.37569931
   0.39399126   0.40776336   0.43828161   0.44527799   0.4521093
   0.48214535   0.51757314   0.51954697   0.52551149   0.54032153
   0.566245     0.56897785   0.58338895   0.59466755   0.60352639
   0.64680891   0.66763884   0.69526976   0.70780303   0.72923704
   0.76848774   0.77308231   0.78158893   0.81478816   0.84325202
   0.88135026   0.90271322   0.96905763   1.07189799]
nelec by numeric integration = 146.00000141758636
    CPU time for vxc     38.03 sec, wall time     15.69 sec
E1 = -4112.473753106805  Ecoul = 1901.2309001483943  Exc = -124.64033277700707
cycle= 5 E= -835.756351808849  delta_E= -0.00128  |g|= 0.0256  |ddm|= 0.144
    CPU time for cycle= 5     38.36 sec, wall time     15.75 sec
  HOMO = -0.10894033065598  LUMO = -0.0125199516304813
  mo_energy =
[-10.03453424 -10.02775255 -10.02306457 -10.02294516 -10.01982286
 -10.01946318 -10.01917821 -10.01911427 -10.01855447 -10.0180313
 -10.01798208 -10.01600238 -10.0152387  -10.01483261 -10.01407611
 -10.00784636 -10.00704899 -10.00660564 -10.00439936 -10.00414837
 -10.00377904  -9.99803796  -0.88076971  -0.83155518  -0.80366351
  -0.79576299  -0.78680126  -0.74449788  -0.73610908  -0.70953579
  -0.69680862  -0.69584377  -0.64333277  -0.61920047  -0.5897866
  -0.57839488  -0.56979515  -0.55265296  -0.54095945  -0.53145851
  -0.49332099  -0.48158305  -0.47000144  -0.45448203  -0.44625306
  -0.43619436  -0.43040252  -0.41991182  -0.40214195  -0.39083584
  -0.38479225  -0.38125018  -0.37090945  -0.36077898  -0.34716133
  -0.33867113  -0.33484339  -0.32906155  -0.31109592  -0.29886969
  -0.28997442  -0.28787099  -0.28543018  -0.28317493  -0.2599396
  -0.23654479  -0.22890297  -0.22121179  -0.2056732   -0.19415517
  -0.18394362  -0.17753791  -0.10894033  -0.01251995   0.04966843
   0.06576337   0.07056742   0.1117178    0.13202719   0.16618998
   0.18901825   0.20569978   0.22772065   0.23508856   0.26084022
   0.27724868   0.28358071   0.29857386   0.31383008   0.31805212
   0.33286954   0.3476039    0.36733276   0.37055157   0.37626904
   0.39473069   0.40881872   0.43928309   0.44562901   0.45285157
   0.48211691   0.51791392   0.52031962   0.52596961   0.54079597
   0.56716729   0.56972146   0.58455329   0.59522206   0.60366753
   0.64632634   0.66879309   0.69598567   0.7093493    0.7296868
   0.76978932   0.77368503   0.78196204   0.81656452   0.84414257
   0.88187397   0.90291331   0.96955092   1.07403121]
nelec by numeric integration = 146.00000140975118
    CPU time for vxc     38.65 sec, wall time     15.89 sec
E1 = -4112.432284619255  Ecoul = 1901.1872236879722  Exc = -124.63834636770424
cycle= 6 E= -835.756573372419  delta_E= -0.000222  |g|= 0.00821  |ddm|= 0.0513
    CPU time for cycle= 6     39.07 sec, wall time     15.96 sec
  HOMO = -0.108709348733337  LUMO = -0.0122198743156927
  mo_energy =
[-10.03366202 -10.02754468 -10.0237825  -10.02221863 -10.01972921
 -10.01950186 -10.01930964 -10.01913338 -10.01871575 -10.01819392
 -10.01754602 -10.01623009 -10.015003   -10.01493034 -10.01213242
 -10.0092929  -10.00666395 -10.00597922 -10.00401779 -10.00273504
 -10.00265089  -9.99806234  -0.88101808  -0.83115374  -0.80351435
  -0.79571723  -0.7867329   -0.74418865  -0.73586987  -0.70915327
  -0.69677159  -0.69567497  -0.64314948  -0.61901457  -0.58968102
  -0.5783187   -0.56964389  -0.55249151  -0.54104968  -0.53109839
  -0.49309016  -0.48149229  -0.46984034  -0.45427817  -0.4461598
  -0.43610571  -0.43025945  -0.41997813  -0.40201352  -0.39070729
  -0.38482577  -0.38122078  -0.37084202  -0.36058734  -0.34697619
  -0.33838988  -0.33460361  -0.32879343  -0.31100859  -0.2988427
  -0.28981325  -0.28768341  -0.28538691  -0.28297489  -0.25968421
  -0.23623749  -0.22901962  -0.22112787  -0.20527674  -0.1937614
  -0.18385547  -0.17736986  -0.10870935  -0.01221987   0.04995854
   0.06591308   0.07089338   0.11179824   0.13227326   0.16650776
   0.1892284    0.20556495   0.22803129   0.23505188   0.26117099
   0.27745486   0.28373289   0.2984312    0.31407881   0.31816425
   0.33302806   0.34768336   0.36740033   0.37069391   0.37644899
   0.39506777   0.40876794   0.43908479   0.44598931   0.45282247
   0.48242868   0.51813839   0.52055159   0.52630975   0.5410826
   0.56740864   0.56972236   0.5846679    0.59561786   0.60420296
   0.64688366   0.6689209    0.6963765    0.70916816   0.72997713
   0.76976159   0.77387743   0.78217749   0.81633537   0.84430042
   0.88192233   0.90298969   0.96983318   1.07355113]
nelec by numeric integration = 146.00000141142385
    CPU time for vxc     38.03 sec, wall time     15.76 sec
E1 = -4112.417463086445  Ecoul = 1901.171996704673  Exc = -124.63796482308555
cycle= 7 E= -835.756597278289  delta_E= -2.39e-05  |g|= 0.00154  |ddm|= 0.0137
    CPU time for cycle= 7     38.44 sec, wall time     15.83 sec
  HOMO = -0.108739509217487  LUMO = -0.0122120474224922
  mo_energy =
[-10.03368127 -10.02753906 -10.02368381 -10.02266084 -10.01953336
 -10.0191998  -10.0190599  -10.01905541 -10.01884738 -10.01809793
 -10.017659   -10.01649002 -10.01509075 -10.01494609 -10.0120843
 -10.00903475 -10.00674455 -10.00615355 -10.00406085 -10.0027829
 -10.0027371   -9.99810512  -0.88103956  -0.83119014  -0.80348821
  -0.79572142  -0.78680453  -0.74415713  -0.73582597  -0.70915784
  -0.69676981  -0.69573882  -0.64314409  -0.61900911  -0.58968882
  -0.57835258  -0.56963085  -0.55249155  -0.54105213  -0.53111401
  -0.49311427  -0.48152797  -0.46984735  -0.45431651  -0.44620678
  -0.43606419  -0.43022753  -0.42002236  -0.40196349  -0.39069494
  -0.38485102  -0.38126154  -0.37085296  -0.36060986  -0.34699817
  -0.33838837  -0.33462221  -0.32879833  -0.31100435  -0.29883131
  -0.28979314  -0.28765883  -0.28541963  -0.28301018  -0.25969007
  -0.23623156  -0.22903456  -0.22109335  -0.20522536  -0.19375475
  -0.18386128  -0.17741016  -0.10873951  -0.01221205   0.04994358
   0.06591816   0.0709156    0.1118372    0.13223028   0.16647165
   0.18924916   0.2055808    0.22805168   0.23505676   0.26114907
   0.27757928   0.28373959   0.29838623   0.3140708    0.31816897
   0.33302278   0.34766083   0.36739015   0.37071983   0.37642281
   0.39504968   0.40872188   0.43907786   0.44599288   0.45278448
   0.48240914   0.51804668   0.52055675   0.52626505   0.54101703
   0.56743232   0.56974591   0.58464788   0.5956026    0.60423183
   0.6468489    0.66887766   0.69634315   0.70917929   0.73001285
   0.76972926   0.7740052    0.78216882   0.81631272   0.84436088
   0.8819085    0.90297198   0.96972981   1.07353873]
nelec by numeric integration = 146.00000141145372
    CPU time for vxc     38.57 sec, wall time     15.94 sec
E1 = -4112.421627050281  Ecoul = 1901.1762066154622  Exc = -124.63801153502149
cycle= 8 E= -835.756598043271  delta_E= -7.65e-07  |g|= 0.000445  |ddm|= 0.00255
    CPU time for cycle= 8     38.93 sec, wall time     16.00 sec
  HOMO = -0.108739539580567  LUMO = -0.0121994524697454
  mo_energy =
[-10.03372454 -10.02758391 -10.02367554 -10.02263788 -10.0195056
 -10.01936296 -10.0191249  -10.01907427 -10.01883217 -10.01809952
 -10.01763106 -10.01633944 -10.01511894 -10.01496491 -10.01205668
 -10.00904267 -10.00680751 -10.00618052 -10.00401176 -10.00279821
 -10.00273429  -9.99809604  -0.88104266  -0.83117276  -0.80350652
  -0.79573939  -0.78680406  -0.74414936  -0.73584032  -0.70915419
  -0.69676547  -0.69576257  -0.64313963  -0.61901281  -0.58969206
  -0.57837262  -0.56963531  -0.55248691  -0.54104959  -0.53110705
  -0.4931159   -0.48152835  -0.46985575  -0.45430954  -0.44621253
  -0.43608228  -0.43024663  -0.42002595  -0.40197065  -0.39069267
  -0.38485708  -0.3812659   -0.37084793  -0.36061918  -0.34698632
  -0.33837836  -0.33460704  -0.32877205  -0.31102228  -0.29883678
  -0.2897958   -0.28766471  -0.28542796  -0.28301612  -0.25966873
  -0.23621679  -0.22904266  -0.22110266  -0.20520861  -0.19376064
  -0.18385788  -0.17743206  -0.10873954  -0.01219945   0.04992468
   0.06592435   0.07089769   0.11182278   0.13225882   0.16647542
   0.18924572   0.20557705   0.22804932   0.23504333   0.2611505
   0.27754545   0.28375464   0.29836569   0.31408786   0.31818645
   0.33304845   0.34766521   0.36740044   0.37071648   0.37642313
   0.39506803   0.40870497   0.43908266   0.44599867   0.45277092
   0.48243867   0.51803495   0.52055432   0.52625729   0.54101989
   0.56743714   0.56973831   0.5846532    0.5956042    0.60422451
   0.64685118   0.66885052   0.69635963   0.70916502   0.73000208
   0.769699     0.77395819   0.78218814   0.81629128   0.84435457
   0.88190716   0.90297476   0.96972942   1.07354426]
nelec by numeric integration = 146.00000141134376
    CPU time for vxc     38.32 sec, wall time     15.79 sec
E1 = -4112.421531808636  Ecoul = 1901.1761516474587  Exc = -124.63805186740882
cycle= 9 E= -835.756598102018  delta_E= -5.87e-08  |g|= 0.000216  |ddm|= 0.00086
    CPU time for cycle= 9     38.78 sec, wall time     15.86 sec
  HOMO = -0.108741662510969  LUMO = -0.0121978527273323
  mo_energy =
[-10.03370134 -10.02757503 -10.02367697 -10.02260337 -10.01950083
 -10.01934672 -10.01912574 -10.01909913 -10.01883055 -10.01812097
 -10.01762668 -10.01638166 -10.01510806 -10.01495759 -10.01213295
 -10.00906242 -10.0067936  -10.00618214 -10.00403359 -10.00276873
 -10.0027279   -9.99808868  -0.88103599  -0.83117933  -0.80351
  -0.79573906  -0.78679251  -0.74416737  -0.73584386  -0.70915411
  -0.69676974  -0.69575741  -0.6431395   -0.61901638  -0.58969202
  -0.57837067  -0.56964348  -0.55249253  -0.54105109  -0.53110436
  -0.4931169   -0.48152724  -0.46985685  -0.45430949  -0.44621114
  -0.43608213  -0.43024998  -0.4200197   -0.40197813  -0.39069299
  -0.38485182  -0.38126203  -0.37084963  -0.36061678  -0.34699014
  -0.33838806  -0.33461119  -0.32877741  -0.31102169  -0.2988364
  -0.28979501  -0.28766661  -0.28542504  -0.28301142  -0.25967999
  -0.23623024  -0.22904094  -0.22110537  -0.20520856  -0.19376271
  -0.18386177  -0.17743052  -0.10874166  -0.01219785   0.04992301
   0.06592251   0.07089192   0.1118228    0.13224693   0.16648259
   0.18924613   0.20557973   0.22804841   0.23504623   0.26115407
   0.27754037   0.28375142   0.29837077   0.31407853   0.31818322
   0.33303783   0.34766983   0.36740456   0.37071264   0.37642844
   0.39506181   0.4087095    0.43908601   0.44599698   0.45277375
   0.48242536   0.51803806   0.52054833   0.5262525    0.54101727
   0.56743182   0.56973699   0.58465246   0.59560371   0.60421163
   0.64684789   0.66885365   0.69635438   0.70916602   0.72999552
   0.76970157   0.77395358   0.78217593   0.81629506   0.84434388
   0.88191032   0.90297933   0.96974523   1.07355087]
nelec by numeric integration = 146.00000141134697
    CPU time for vxc     38.08 sec, wall time     15.74 sec
E1 = -4112.4216250248755  Ecoul = 1901.176245115935  Exc = -124.63805213524635
cycle= 10 E= -835.756598117618  delta_E= -1.56e-08  |g|= 6.71e-05  |ddm|= 0.000375
    CPU time for cycle= 10     38.53 sec, wall time     15.81 sec
  HOMO = -0.108745894558934  LUMO = -0.0122004754568569
  mo_energy =
[-10.03370558 -10.02757718 -10.0236798  -10.02261296 -10.01950117
 -10.01935297 -10.019115   -10.0191009  -10.01883399 -10.01811349
 -10.01763515 -10.01639143 -10.01510026 -10.01495674 -10.01211369
 -10.00905761 -10.00678449 -10.00617542 -10.00403763 -10.00278861
 -10.00273859  -9.99809313  -0.88103773  -0.8311833   -0.80350874
  -0.79573695  -0.78679601  -0.74416695  -0.73584514  -0.70915793
  -0.69677115  -0.69575304  -0.64314239  -0.61901745  -0.58969344
  -0.57836755  -0.56964242  -0.55249455  -0.54105115  -0.53110874
  -0.49311899  -0.48152699  -0.4698561   -0.45431228  -0.44620991
  -0.43608277  -0.4302484   -0.42001981  -0.40197822  -0.39069518
  -0.38485255  -0.38126139  -0.37084998  -0.36061654  -0.34699227
  -0.3383889   -0.33461453  -0.32878189  -0.31101968  -0.29883745
  -0.28979739  -0.28766797  -0.2854241   -0.28301338  -0.2596814
  -0.2362313   -0.22903909  -0.22110649  -0.20521671  -0.19376444
  -0.18386418  -0.17742692  -0.10874589  -0.01220048   0.04992619
   0.06591982   0.07089417   0.1118225    0.13224399   0.16647752
   0.18924356   0.20557985   0.2280448    0.23504785   0.26115061
   0.27753817   0.28374737   0.29837586   0.31407729   0.31817999
   0.33303485   0.34766857   0.36740156   0.37071236   0.37642564
   0.39505855   0.40871293   0.43908589   0.44599415   0.45277722
   0.48242226   0.51804008   0.52054843   0.52625419   0.54101727
   0.56742952   0.56973555   0.58464976   0.59559969   0.60421269
   0.64684493   0.6688588    0.69635088   0.70916848   0.7299947
   0.76970764   0.77395381   0.78217255   0.81629976   0.84434229
   0.88190808   0.90297547   0.96973968   1.07354873]
nelec by numeric integration = 146.00000141135828
    CPU time for vxc     38.15 sec, wall time     15.75 sec
E1 = -4112.42169406606  Ecoul = 1901.1763137832056  Exc = -124.63805176291967
cycle= 11 E= -835.756598119205  delta_E= -1.59e-09  |g|= 2.27e-05  |ddm|= 0.000129
    CPU time for cycle= 11     38.50 sec, wall time     15.80 sec
  HOMO = -0.108745565051753  LUMO = -0.0121994221073193
  mo_energy =
[-10.03370668 -10.0275763  -10.02367998 -10.02261394 -10.01950459
 -10.01934606 -10.01911681 -10.01909599 -10.01883285 -10.01811341
 -10.01763254 -10.01638346 -10.01510356 -10.0149593  -10.01211356
 -10.00905727 -10.00678756 -10.00617381 -10.00403631 -10.00278573
 -10.00273366  -9.99809464  -0.88103864  -0.83118134  -0.80350803
  -0.79573718  -0.78679693  -0.74416478  -0.73584363  -0.70915684
  -0.69677016  -0.69575392  -0.6431416   -0.61901669  -0.58969296
  -0.5783681   -0.56964165  -0.55249323  -0.54105134  -0.53110794
  -0.49311802  -0.48152719  -0.46985574  -0.45431183  -0.4462101
  -0.4360819   -0.43024781  -0.42002079  -0.40197705  -0.39069428
  -0.38485315  -0.38126196  -0.37085002  -0.36061647  -0.34699126
  -0.33838735  -0.33461313  -0.32878097  -0.31101982  -0.29883718
  -0.28979706  -0.28766713  -0.28542458  -0.28301318  -0.25968005
  -0.23622953  -0.22903985  -0.22110569  -0.20521606  -0.19376352
  -0.1838632   -0.17742737  -0.10874557  -0.01219942   0.04992641
   0.06592117   0.07089481   0.11182294   0.13224586   0.16647769
   0.1892439    0.20557897   0.22804583   0.23504688   0.26115075
   0.27754089   0.28374811   0.29837439   0.3140785    0.31818035
   0.33303663   0.3476679    0.36740141   0.37071359   0.37642538
   0.39506013   0.40871177   0.43908475   0.44599544   0.45277642
   0.4824239    0.51804001   0.52054903   0.52625448   0.54101793
   0.56743095   0.56973658   0.58465014   0.59560152   0.60421428
   0.64684594   0.66885796   0.69635253   0.70916754   0.72999641
   0.76970621   0.77395646   0.78217518   0.81629815   0.84434501
   0.88190802   0.90297549   0.96973904   1.07354752]
nelec by numeric integration = 146.00000141135834
    CPU time for vxc     38.37 sec, wall time     15.85 sec
E1 = -4112.421636680385  Ecoul = 1901.1762555288024  Exc = -124.63805089438068
cycle= 12 E= -835.756598119394  delta_E= -1.89e-10  |g|= 9.37e-06  |ddm|= 4.84e-05
    CPU time for cycle= 12     38.98 sec, wall time     15.94 sec
  HOMO = -0.108745109392001  LUMO = -0.0121988780791716
  mo_energy =
[-10.03370576 -10.02757514 -10.02367911 -10.02261194 -10.01950275
 -10.0193473  -10.01911679 -10.01909595 -10.01883266 -10.01811407
 -10.0176333  -10.01638439 -10.01510333 -10.01495796 -10.01211319
 -10.00905705 -10.00678682 -10.00617619 -10.00403378 -10.00278384
 -10.0027349   -9.99809341  -0.88103767  -0.8311812   -0.80350802
  -0.79573707  -0.78679592  -0.74416472  -0.73584354  -0.70915663
  -0.69676989  -0.69575407  -0.64314122  -0.61901648  -0.58969261
  -0.57836814  -0.56964152  -0.55249298  -0.54105107  -0.53110765
  -0.49311764  -0.48152697  -0.46985573  -0.45431123  -0.44621002
  -0.43608188  -0.43024782  -0.42002031  -0.40197692  -0.39069424
  -0.38485261  -0.38126183  -0.37084974  -0.36061637  -0.34699109
  -0.3383874   -0.33461306  -0.32878042  -0.31101971  -0.29883676
  -0.28979661  -0.28766694  -0.28542437  -0.28301272  -0.25967997
  -0.23622943  -0.22903953  -0.22110543  -0.20521495  -0.1937633
  -0.1838629   -0.17742754  -0.10874511  -0.01219888   0.04992629
   0.06592154   0.07089475   0.11182317   0.13224623   0.16647839
   0.18924446   0.20557945   0.22804629   0.23504732   0.26115136
   0.27754082   0.28374873   0.29837428   0.31407853   0.31818099
   0.33303679   0.34766819   0.36740185   0.37071332   0.37642603
   0.39505985   0.40871183   0.43908515   0.4459952    0.45277622
   0.48242446   0.51803989   0.52054933   0.52625485   0.54101796
   0.56743111   0.56973661   0.58465064   0.59560125   0.60421441
   0.64684665   0.66885778   0.69635246   0.70916796   0.72999627
   0.76970609   0.77395602   0.7821755    0.81629834   0.84434502
   0.88190874   0.90297636   0.96974028   1.07354864]
nelec by numeric integration = 146.0000014113565
    CPU time for vxc     38.07 sec, wall time     15.77 sec
E1 = -4112.421624905302  Ecoul = 1901.1762434706206  Exc = -124.63805061131347
cycle= 13 E= -835.756598119427  delta_E= -3.23e-11  |g|= 5.33e-06  |ddm|= 2.09e-05
    CPU time for cycle= 13     38.51 sec, wall time     15.84 sec
  HOMO = -0.108745235857484  LUMO = -0.0121989698217329
  mo_energy =
[-10.03370633 -10.02757742 -10.02367903 -10.02261354 -10.01950278
 -10.01934775 -10.01911711 -10.01909672 -10.01883297 -10.01811349
 -10.01763184 -10.01638524 -10.01510303 -10.01495835 -10.01211465
 -10.00905758 -10.00678804 -10.00617421 -10.00403722 -10.00278578
 -10.00273259  -9.99809191  -0.881038    -0.83118141  -0.80350829
  -0.7957372   -0.78679631  -0.74416539  -0.73584385  -0.70915654
  -0.69677019  -0.69575401  -0.64314131  -0.61901673  -0.58969294
  -0.57836821  -0.56964188  -0.55249343  -0.54105105  -0.53110761
  -0.49311825  -0.48152701  -0.46985582  -0.45431168  -0.4462101
  -0.43608206  -0.43024807  -0.42002047  -0.40197732  -0.39069423
  -0.38485277  -0.38126171  -0.37084982  -0.36061637  -0.34699118
  -0.33838747  -0.33461314  -0.3287806   -0.31101988  -0.29883707
  -0.28979692  -0.28766723  -0.28542438  -0.28301306  -0.25968001
  -0.2362298   -0.22903981  -0.22110576  -0.20521537  -0.19376345
  -0.18386333  -0.17742748  -0.10874524  -0.01219897   0.0499262
   0.06592105   0.07089458   0.11182302   0.1322456    0.16647825
   0.18924405   0.20557935   0.22804583   0.23504704   0.26115108
   0.27753999   0.28374838   0.29837429   0.31407837   0.31818071
   0.33303639   0.3476686    0.36740197   0.37071299   0.37642585
   0.39506032   0.40871179   0.4390852    0.44599575   0.45277646
   0.48242372   0.51803988   0.52054899   0.52625422   0.54101793
   0.56743111   0.56973655   0.58465047   0.5956017    0.60421381
   0.64684573   0.66885789   0.69635278   0.70916779   0.72999619
   0.76970625   0.77395559   0.78217461   0.81629836   0.84434438
   0.88190823   0.90297579   0.96973962   1.07354845]
nelec by numeric integration = 146.00000141135578
    CPU time for vxc     38.76 sec, wall time     15.93 sec
E1 = -4112.421636965008  Ecoul = 1901.1762564037417  Exc = -124.63805148468337
Extra cycle  E= -835.75659811938  delta_E= 4.64e-11  |g|= 1.18e-05  |ddm|= 3e-05
    CPU time for scf_cycle    590.45 sec, wall time    240.68 sec
    CPU time for SCF    590.45 sec, wall time    240.68 sec
converged SCF energy = -835.75659811938
nelec by numeric integration = 146.00000141135578
    CPU time for vxc     38.18 sec, wall time     15.85 sec
 ** Mulliken pop  **
pop of  0 C 1s            1.99118
pop of  0 C 2s            1.18419
pop of  0 C 2px           0.97075
pop of  0 C 2py           0.92726
pop of  0 C 2pz           0.92978
pop of  1 C 1s            1.99092
pop of  1 C 2s            1.14767
pop of  1 C 2px           0.98904
pop of  1 C 2py           0.94720
pop of  1 C 2pz           0.91273
pop of  2 C 1s            1.99129
pop of  2 C 2s            1.19956
pop of  2 C 2px           0.95149
pop of  2 C 2py           0.94362
pop of  2 C 2pz           0.98809
pop of  3 C 1s            1.99079
pop of  3 C 2s            1.14006
pop of  3 C 2px           1.02456
pop of  3 C 2py           0.93707
pop of  3 C 2pz           0.98499
pop of  4 C 1s            1.99047
pop of  4 C 2s            1.09697
pop of  4 C 2px           1.03565
pop of  4 C 2py           0.97727
pop of  4 C 2pz           1.03509
pop of  5 C 1s            1.99098
pop of  5 C 2s            1.17280
pop of  5 C 2px           0.99555
pop of  5 C 2py           0.93285
pop of  5 C 2pz           0.97020
pop of  6 C 1s            1.99110
pop of  6 C 2s            1.17193
pop of  6 C 2px           0.96458
pop of  6 C 2py           0.98202
pop of  6 C 2pz           0.92402
pop of  7 C 1s            1.99101
pop of  7 C 2s            1.15601
pop of  7 C 2px           1.02589
pop of  7 C 2py           1.01828
pop of  7 C 2pz           0.94118
pop of  8 C 1s            1.99039
pop of  8 C 2s            1.08363
pop of  8 C 2px           1.01810
pop of  8 C 2py           0.98596
pop of  8 C 2pz           0.94753
pop of  9 C 1s            1.99065
pop of  9 C 2s            1.13405
pop of  9 C 2px           0.98276
pop of  9 C 2py           0.93954
pop of  9 C 2pz           0.95612
pop of  10 C 1s           1.99154
pop of  10 C 2s           1.14745
pop of  10 C 2px          0.97072
pop of  10 C 2py          0.95660
pop of  10 C 2pz          0.94092
pop of  11 C 1s           1.99116
pop of  11 C 2s           1.20349
pop of  11 C 2px          0.99623
pop of  11 C 2py          0.91078
pop of  11 C 2pz          0.94788
pop of  12 C 1s           1.99107
pop of  12 C 2s           1.08679
pop of  12 C 2px          0.99358
pop of  12 C 2py          0.96108
pop of  12 C 2pz          0.96689
pop of  13 C 1s           1.99121
pop of  13 C 2s           1.09051
pop of  13 C 2px          0.99311
pop of  13 C 2py          1.00419
pop of  13 C 2pz          0.93049
pop of  14 C 1s           1.99082
pop of  14 C 2s           1.08885
pop of  14 C 2px          1.00574
pop of  14 C 2py          0.99837
pop of  14 C 2pz          1.03385
pop of  15 C 1s           1.99086
pop of  15 C 2s           1.05245
pop of  15 C 2px          1.00776
pop of  15 C 2py          1.02776
pop of  15 C 2pz          1.02822
pop of  16 C 1s           1.99104
pop of  16 C 2s           1.15108
pop of  16 C 2px          0.97288
pop of  16 C 2py          0.91396
pop of  16 C 2pz          0.95714
pop of  17 C 1s           1.99109
pop of  17 C 2s           1.11618
pop of  17 C 2px          0.98622
pop of  17 C 2py          0.95000
pop of  17 C 2pz          0.96687
pop of  18 C 1s           1.99126
pop of  18 C 2s           1.18519
pop of  18 C 2px          0.98228
pop of  18 C 2py          0.93309
pop of  18 C 2pz          0.97973
pop of  19 C 1s           1.99168
pop of  19 C 2s           1.20590
pop of  19 C 2px          0.97193
pop of  19 C 2py          0.91880
pop of  19 C 2pz          0.95683
pop of  20 C 1s           1.99055
pop of  20 C 2s           1.11536
pop of  20 C 2px          1.00656
pop of  20 C 2py          1.00517
pop of  20 C 2pz          0.97322
pop of  21 C 1s           1.99068
pop of  21 C 2s           1.10661
pop of  21 C 2px          1.02068
pop of  21 C 2py          0.99984
pop of  21 C 2pz          0.96824
pop of  22 H 1s           0.90063
pop of  23 H 1s           0.92568
pop of  24 H 1s           0.88310
pop of  25 H 1s           0.93831
pop of  26 H 1s           0.93423
pop of  27 H 1s           0.88028
pop of  28 H 1s           1.00904
pop of  29 H 1s           0.93726
pop of  30 H 1s           0.88709
pop of  31 H 1s           0.92210
pop of  32 H 1s           0.91112
pop of  33 H 1s           0.91585
pop of  34 H 1s           0.91442
pop of  35 H 1s           0.92562
 ** Mulliken atomic charges  **
charge of    0C =     -0.00315
charge of    1C =      0.01243
charge of    2C =     -0.07404
charge of    3C =     -0.07748
charge of    4C =     -0.13545
charge of    5C =     -0.06236
charge of    6C =     -0.03365
charge of    7C =     -0.13237
charge of    8C =     -0.02561
charge of    9C =     -0.00311
charge of   10C =     -0.00724
charge of   11C =     -0.04954
charge of   12C =      0.00059
charge of   13C =     -0.00951
charge of   14C =     -0.11763
charge of   15C =     -0.10705
charge of   16C =      0.01391
charge of   17C =     -0.01036
charge of   18C =     -0.07154
charge of   19C =     -0.04515
charge of   20C =     -0.09087
charge of   21C =     -0.08605
charge of   22H =      0.09937
charge of   23H =      0.07432
charge of   24H =      0.11690
charge of   25H =      0.06169
charge of   26H =      0.06577
charge of   27H =      0.11972
charge of   28H =     -0.00904
charge of   29H =      0.06274
charge of   30H =      0.11291
charge of   31H =      0.07790
charge of   32H =      0.08888
charge of   33H =      0.08415
charge of   34H =      0.08558
charge of   35H =      0.07438
Dipole moment(X, Y, Z, Debye): -0.21786, -0.29655, -0.40096
nelec by numeric integration = 146.00000141135578
    CPU time for vxc     38.23 sec, wall time     15.80 sec
E1 = -4112.421636965008  Ecoul = 1901.176256403742  Exc = -124.63805148468337
nelec by numeric integration = 146.00000141135578
    CPU time for vxc     37.17 sec, wall time     15.61 sec
E1 = -4112.421636965008  Ecoul = 1901.1762564037422  Exc = -124.63805148468337
