System: uname_result(system='Linux', node='cosmopc18', release='5.15.0-97-generic', version='#107-Ubuntu SMP Wed Feb 7 13:26:48 UTC 2024', machine='x86_64')  Threads 4
Python 3.11.8 (main, Feb 26 2024, 21:39:34) [GCC 11.2.0]
numpy 1.26.4  scipy 1.11.4
Date: Tue Apr  9 12:52:28 2024
PySCF version 2.3.0
PySCF path  /home/saade/miniconda3/envs/tutorial/lib/python3.11/site-packages/pyscf

[ENV] PYSCFAD_BACKEND torch
[CONFIG] conf_file None
[INPUT] verbose = 5
[INPUT] max_memory = 4000 
[INPUT] num. atoms = 36
[INPUT] num. electrons = 146
[INPUT] charge = 0
[INPUT] spin (= nelec alpha-beta = 2S) = 0
[INPUT] symmetry False subgroup None
[INPUT] Mole.unit = angstrom
[INPUT] Symbol           X                Y                Z      unit          X                Y                Z       unit  Magmom
[INPUT]  1 C      0.039761000000   3.708742000000   0.710695000000 AA    0.075137400439   7.008506646672   1.343018908098 Bohr   0.0
[INPUT]  2 C     -0.080205000000   3.761592000000  -0.879114000000 AA   -0.151565483821   7.108378672355  -1.661284692271 Bohr   0.0
[INPUT]  3 C      0.021522000000   5.118183000000   1.320807000000 AA    0.040670685653   9.671964125405   2.495963493408 Bohr   0.0
[INPUT]  4 C     -0.014613000000   2.448514000000   1.610557000000 AA   -0.027614567858   4.627020872163   3.043511638001 Bohr   0.0
[INPUT]  5 C      0.048350000000   5.073700000000  -1.476072000000 AA    0.091368258123   9.587903438206  -2.789371820139 Bohr   0.0
[INPUT]  6 C     -0.047548000000   2.442430000000  -1.436975000000 AA   -0.089852697771   4.615523778421  -2.715489197847 Bohr   0.0
[INPUT]  7 C     -0.048453000000   6.118490000000  -0.840131000000 AA   -0.091562899914  11.562270395890  -1.587617498757 Bohr   0.0
[INPUT]  8 C     -0.055314000000   6.224794000000   0.648997000000 AA   -0.104528310854  11.763155841836   1.226426585664 Bohr   0.0
[INPUT]  9 C      0.031503000000   1.173533000000   0.903383000000 AA    0.059532042102   2.217655968139   1.707146455588 Bohr   0.0
[INPUT] 10 C     -0.109040000000   1.094638000000  -0.760749000000 AA   -0.206055736623   2.068566025542  -1.437607259537 Bohr   0.0
[INPUT] 11 C     -0.005710000000   0.139123000000   1.465758000000 AA   -0.010790336171   0.262904367628   2.769881184890 Bohr   0.0
[INPUT] 12 C     -0.149412000000  -0.054314000000  -1.404564000000 AA   -0.282347759724  -0.102638584730  -2.654241284424 Bohr   0.0
[INPUT] 13 C     -0.067919000000  -1.275441000000   0.640153000000 AA   -0.128348308654  -2.410234178041   1.209713847819 Bohr   0.0
[INPUT] 14 C     -0.036761000000  -1.208723000000  -0.664797000000 AA   -0.069468222065  -2.284155430463  -1.256284258432 Bohr   0.0
[INPUT] 15 C     -0.113827000000  -2.390927000000   1.617870000000 AA   -0.215101855581  -4.518197213828   3.057331205150 Bohr   0.0
[INPUT] 16 C     -0.023818000000  -2.568224000000  -1.279323000000 AA   -0.045009496835  -4.853239986535  -2.417570094857 Bohr   0.0
[INPUT] 17 C     -0.083760000000  -3.766221000000   0.935072000000 AA   -0.158283460194  -7.117126214586   1.767029986749 Bohr   0.0
[INPUT] 18 C      0.106183000000  -3.698339000000  -0.654725000000 AA    0.200656789085  -6.988847825798  -1.237250936906 Bohr   0.0
[INPUT] 19 C     -0.034938000000  -4.969900000000   1.410486000000 AA   -0.066023251340  -9.391749866476   2.665432242533 Bohr   0.0
[INPUT] 20 C     -0.098042000000  -4.885210000000  -1.373962000000 AA   -0.185272528705  -9.231708960986  -2.596411885560 Bohr   0.0
[INPUT] 21 C     -0.073106000000  -6.326292000000   0.583322000000 AA   -0.138150318062 -11.954959264027   1.102318822434 Bohr   0.0
[INPUT] 22 C     -0.171304000000  -6.179250000000  -0.883516000000 AA   -0.323717644042 -11.677090155219  -1.669603266671 Bohr   0.0
[INPUT] 23 H      0.013641000000   5.134966000000   2.565817000000 AA    0.025777754065   9.703679398953   4.848691415753 Bohr   0.0
[INPUT] 24 H     -0.015994000000   2.465983000000   2.719754000000 AA   -0.030224279636   4.660032497833   5.139590186190 Bohr   0.0
[INPUT] 25 H     -0.019488000000   5.017732000000  -2.376444000000 AA   -0.036826982716   9.482139246466  -4.490828310366 Bohr   0.0
[INPUT] 26 H     -0.022727000000   2.376114000000  -2.534533000000 AA   -0.042947805633   4.490204700745  -4.789573223672 Bohr   0.0
[INPUT] 27 H     -0.013360000000   7.013299000000  -1.211062000000 AA   -0.025246741024  13.253214339686  -2.288575499868 Bohr   0.0
[INPUT] 28 H     -0.000136000000   6.922439000000   1.277833000000 AA   -0.000257002753  13.081513824008   2.414754402931 Bohr   0.0
[INPUT] 29 H     -0.022171000000   0.156534000000   2.528513000000 AA   -0.041897117908   0.295806389183   4.778197072402 Bohr   0.0
[INPUT] 30 H      0.218785000000  -0.035768000000  -2.580793000000 AA    0.413443730163  -0.067591724023  -4.876991954195 Bohr   0.0
[INPUT] 31 H      0.083051000000  -2.494308000000   2.658433000000 AA    0.156943644371  -4.713558990312   5.023710290506 Bohr   0.0
[INPUT] 32 H      0.178990000000  -2.526332000000  -2.387693000000 AA    0.338242079036  -4.774075579725  -4.512085839541 Bohr   0.0
[INPUT] 33 H      0.131964000000  -5.023513000000   2.356615000000 AA    0.249375818302  -9.493063753192   4.453356931042 Bohr   0.0
[INPUT] 34 H      0.030970000000  -4.954993000000  -2.423788000000 AA    0.058524818078  -9.363579719137  -4.580295504007 Bohr   0.0
[INPUT] 35 H     -0.051348000000  -7.037035000000   1.275204000000 AA   -0.097033657044 -13.298068878979   2.409786312950 Bohr   0.0
[INPUT] 36 H     -0.196793000000  -7.039183000000  -1.186157000000 AA   -0.371884873232 -13.302128010694  -2.241511870736 Bohr   0.0
[INPUT] ---------------- BASIS SET ---------------- 
[INPUT] l, kappa, [nprim/nctr], expnt,             c_1 c_2 ...
[INPUT] H
[INPUT] 0    0    [3    /1   ]  3.42525091        0.15432897
                                0.62391373        0.53532814
                                0.1688554         0.44463454
[INPUT] C
[INPUT] 0    0    [3    /1   ]  71.616837         0.15432897
                                13.045096         0.53532814
                                3.5305122         0.44463454
[INPUT] 0    0    [3    /1   ]  2.9412494         -0.09996723
                                0.6834831         0.39951283
                                0.2222899         0.70011547
[INPUT] 1    0    [3    /1   ]  2.9412494         0.15591627
                                0.6834831         0.60768372
                                0.2222899         0.39195739

nuclear repulsion = 1471.63688850623
number of shells = 80
number of NR pGTOs = 372
number of NR cGTOs = 124
basis = sto3g
ecp = {}
CPU time:     27934.36
atom C rad-grids = 99, ang-grids = [ 50  50  50  50  50  50  50  50  50  50  50  50  50  50  50  50  50  50
  50  50  50  50  50  50  50  50  50  50  50  50  50  86  86  86  86  86
  86  86  86  86  86  86  86 434 434 434 434 434 434 434 434 434 590 590
 590 590 590 590 590 590 590 590 590 590 590 590 590 590 590 590 590 590
 590 590 590 590 590 590 590 434 434 434 434 434 434 434 434 434 434 434
 434 434 434 434 434 434 434 434 434]
atom H rad-grids = 99, ang-grids = [ 50  50  50  50  50  50  50  50  50  50  50  50  50  50  50  50  50  50
  50  50  50  50  50  50  50  50  50  50  86  86  86  86  86  86  86 434
 434 434 434 434 434 434 434 590 590 590 590 590 590 590 590 590 590 590
 590 590 590 590 590 590 590 590 590 590 590 590 590 590 590 434 434 434
 434 434 434 434 434 434 434 434 434 434 434 434 434 434 434 434 434 434
 434 434 434 434 434 434 434 434 434]
tot_boxes 5270, boxes in each direction [ 8 29 15]
Padding 0 grids
tot grids = 1157832


******** <class 'pyscf.dft.rks.RKS'> ********
method = RKS
initial guess = minao
damping factor = 0
level_shift factor = 0
DIIS = <class 'pyscf.scf.diis.CDIIS'>
diis_start_cycle = 1
diis_space = 8
SCF conv_tol = 1e-10
SCF conv_tol_grad = None
SCF max_cycles = 50
direct_scf = True
direct_scf_tol = 1e-13
chkfile to save SCF result = /home/saade/mlelec/tutorials/tmpwf0ul4hr
max_memory 4000 MB (current use 637 MB)
XC library pyscf.dft.libxc version 6.1.0
    S. Lehtola, C. Steigemann, M. J.T. Oliveira, and M. A.L. Marques.,  SoftwareX 7, 1–5 (2018)
XC functionals = b3lypg
    P. J. Stephens, F. J. Devlin, C. F. Chabalowski, and M. J. Frisch.,  J. Phys. Chem. 98, 11623 (1994)
radial grids: 
    Treutler-Ahlrichs [JCP 102, 346 (1995); DOI:10.1063/1.469408] (M4) radial grids
    
becke partition: Becke, JCP 88, 2547 (1988); DOI:10.1063/1.454033
pruning grids: <function nwchem_prune at 0x7f9db5616ca0>
grids dens level: 3
symmetrized grids: False
atomic radii adjust function: <function treutler_atomic_radii_adjust at 0x7f9db5617380>
User specified grid scheme (99, 590)
small_rho_cutoff = 1e-07
Set gradient conv threshold to 1e-05
Initial guess from minao.
nelec by numeric integration = 145.2583791701279
    CPU time for vxc     36.79 sec, wall time     15.52 sec
E1 = -4043.459072185289  Ecoul = 1856.8150626183938  Exc = -125.8996065252077
init E= -840.906727585876
cond(S) = 21.506034759520986
    CPU time for initialize scf     46.62 sec, wall time     17.89 sec
  HOMO = -0.203728689925354  LUMO = -0.145623603118713
  mo_energy =
[-1.01364609e+01 -1.01312314e+01 -1.01280942e+01 -1.01201791e+01
 -1.01182913e+01 -1.01098739e+01 -1.01078141e+01 -1.01055869e+01
 -1.01047030e+01 -1.01044403e+01 -1.01009475e+01 -1.01009019e+01
 -1.00967788e+01 -1.00950518e+01 -1.00925530e+01 -1.00876131e+01
 -1.00847031e+01 -1.00839345e+01 -1.00822756e+01 -1.00810587e+01
 -1.00723342e+01 -1.00673506e+01 -1.07820689e+00 -1.04598561e+00
 -1.03027454e+00 -9.79137218e-01 -9.41176044e-01 -9.27252601e-01
 -9.19603969e-01 -9.03819718e-01 -8.60724155e-01 -8.27930898e-01
 -7.91881234e-01 -7.62178451e-01 -7.24101778e-01 -7.08679962e-01
 -6.82893347e-01 -6.75010799e-01 -6.56275212e-01 -6.42708033e-01
 -6.07373052e-01 -5.97537868e-01 -5.68360885e-01 -5.55238908e-01
 -5.33839804e-01 -5.21237863e-01 -5.15100843e-01 -5.08622583e-01
 -5.02015332e-01 -4.89066318e-01 -4.72545418e-01 -4.66365414e-01
 -4.62752779e-01 -4.51109359e-01 -4.35264151e-01 -4.31161765e-01
 -4.26166738e-01 -4.20273826e-01 -4.14815618e-01 -4.00126765e-01
 -3.91008400e-01 -3.80853056e-01 -3.62927958e-01 -3.51635520e-01
 -3.43739178e-01 -3.34687648e-01 -3.23212700e-01 -3.15801327e-01
 -3.09952584e-01 -3.01396041e-01 -2.74764955e-01 -2.37605146e-01
 -2.03728690e-01 -1.45623603e-01 -1.11370037e-01 -6.62377024e-02
 -3.76357376e-02 -2.74187656e-02  3.94331358e-04  1.54170261e-02
  3.40503532e-02  8.36914388e-02  9.35834936e-02  1.20758720e-01
  1.34979487e-01  1.52624878e-01  1.58025109e-01  1.61999608e-01
  1.69648402e-01  1.83281953e-01  2.00728467e-01  2.13422655e-01
  2.43367332e-01  2.46445972e-01  2.56847800e-01  2.74899914e-01
  2.81929045e-01  2.90030130e-01  3.14321885e-01  3.21820195e-01
  3.31951796e-01  3.64181015e-01  3.75796910e-01  3.91653774e-01
  3.96711997e-01  4.14691895e-01  4.46624720e-01  4.90215230e-01
  4.98316689e-01  5.06166157e-01  5.15492343e-01  5.37773602e-01
  5.69393288e-01  5.75480619e-01  5.86516104e-01  6.03876824e-01
  6.21612812e-01  6.25819347e-01  6.71730758e-01  6.76742796e-01
  6.81310047e-01  7.31102497e-01  7.82974860e-01  8.35935363e-01]
nelec by numeric integration = 146.00000365890048
    CPU time for vxc     38.26 sec, wall time     15.86 sec
E1 = -4058.693215274861  Ecoul = 1875.8267596989733  Exc = -124.58775016012763
cycle= 1 E= -835.817317229788  delta_E= 5.09  |g|= 0.286  |ddm|= 9.18
    CPU time for cycle= 1     38.54 sec, wall time     15.90 sec
  HOMO = -0.0902736159881218  LUMO = 0.000134877606300752
  mo_energy =
[-1.00550924e+01 -1.00396541e+01 -1.00206876e+01 -1.00142877e+01
 -1.00130054e+01 -1.00124076e+01 -1.00080725e+01 -1.00010231e+01
 -9.99444257e+00 -9.99018553e+00 -9.98866476e+00 -9.98577009e+00
 -9.98558184e+00 -9.97902258e+00 -9.97425407e+00 -9.97026910e+00
 -9.96711275e+00 -9.96504992e+00 -9.96420075e+00 -9.96176840e+00
 -9.91857260e+00 -9.91031511e+00 -8.13621054e-01 -8.07910143e-01
 -7.89539858e-01 -7.51459871e-01 -7.35276447e-01 -7.23053048e-01
 -7.18304428e-01 -7.12577466e-01 -6.78700075e-01 -6.52898394e-01
 -6.32262408e-01 -6.09086901e-01 -5.79357548e-01 -5.75595310e-01
 -5.56796539e-01 -5.36955084e-01 -5.23185734e-01 -5.04434886e-01
 -4.85677329e-01 -4.79277023e-01 -4.60069167e-01 -4.42773301e-01
 -4.29060950e-01 -4.08569631e-01 -4.06699195e-01 -3.98498455e-01
 -3.92273924e-01 -3.77461098e-01 -3.67266303e-01 -3.61896279e-01
 -3.50134438e-01 -3.42046764e-01 -3.36691442e-01 -3.27395205e-01
 -3.20555203e-01 -3.17758995e-01 -3.02900312e-01 -2.94916359e-01
 -2.91418234e-01 -2.64575466e-01 -2.54031687e-01 -2.48848464e-01
 -2.43340490e-01 -2.27182214e-01 -2.13166653e-01 -2.07037894e-01
 -2.03287069e-01 -1.95628244e-01 -1.61710468e-01 -1.26108015e-01
 -9.02736160e-02  1.34877606e-04  3.60321441e-02  7.82818204e-02
  9.90983145e-02  1.25938458e-01  1.62329537e-01  1.68395410e-01
  2.02239579e-01  2.49585839e-01  2.57765804e-01  2.77321905e-01
  2.86527665e-01  2.97755067e-01  3.12052306e-01  3.17554331e-01
  3.26608227e-01  3.38781493e-01  3.54475278e-01  3.62072193e-01
  3.67205604e-01  3.92276226e-01  4.09066409e-01  4.24450206e-01
  4.28622615e-01  4.38730471e-01  4.67095706e-01  4.69387525e-01
  4.80025949e-01  5.01052725e-01  5.22359103e-01  5.27226354e-01
  5.41085567e-01  5.54443058e-01  5.98461879e-01  6.10286434e-01
  6.35214483e-01  6.42641611e-01  6.85304718e-01  6.86366141e-01
  7.10954389e-01  7.31157762e-01  7.41472757e-01  7.58989234e-01
  7.68658514e-01  7.96671285e-01  8.06136449e-01  8.20137068e-01
  8.53039512e-01  8.99822106e-01  9.36564532e-01  1.04846766e+00]
nelec by numeric integration = 146.0000035446275
    CPU time for vxc     38.36 sec, wall time     15.79 sec
E1 = -4053.5849100364367  Ecoul = 1870.600195410266  Exc = -124.45515570829326
cycle= 2 E= -835.802981828237  delta_E= 0.0143  |g|= 0.354  |ddm|= 0.979
    CPU time for cycle= 2     38.72 sec, wall time     15.85 sec
  HOMO = -0.104748461343928  LUMO = -0.0130419395445406
  mo_energy =
[-10.03896349 -10.03686569 -10.02580841 -10.02376436 -10.01972121
 -10.01854268 -10.01611536 -10.01593098 -10.01453654 -10.01314565
 -10.01164158 -10.01110988 -10.00667719 -10.00471783 -10.00375949
  -9.99641958  -9.9957446   -9.9947421   -9.99443295  -9.99039055
  -9.98890576  -9.95193853  -0.84425698  -0.81599758  -0.80524407
  -0.77507654  -0.74799815  -0.73918195  -0.73331942  -0.71758575
  -0.6918052   -0.66681647  -0.63971224  -0.61728357  -0.59186177
  -0.57680657  -0.56027126  -0.55257102  -0.53308746  -0.52378095
  -0.49596262  -0.49326648  -0.46456642  -0.45447517  -0.43435362
  -0.42643003  -0.42414922  -0.41309122  -0.40890292  -0.39258971
  -0.37898258  -0.37503172  -0.37263573  -0.35826371  -0.34468732
  -0.33664552  -0.32994545  -0.32591572  -0.31141255  -0.30913291
  -0.30172093  -0.2842474   -0.27335196  -0.26302206  -0.25283584
  -0.24188992  -0.2385157   -0.22400733  -0.21637775  -0.20113817
  -0.17688649  -0.14106794  -0.10474846  -0.01304194   0.02168383
   0.06712427   0.10283099   0.11463919   0.14195753   0.15444783
   0.17618861   0.22265799   0.23949996   0.26367957   0.27634889
   0.28701074   0.29720384   0.30185308   0.30600868   0.31920507
   0.34107303   0.35505775   0.37700726   0.39259217   0.39385599
   0.40279267   0.41730257   0.42820392   0.45193288   0.46106492
   0.46630164   0.49531739   0.51717506   0.51823845   0.53141007
   0.54310954   0.57438609   0.62304464   0.63080469   0.63807932
   0.65215324   0.67524049   0.70496823   0.71440143   0.71895705
   0.7434194    0.76309787   0.76654782   0.80777655   0.81381243
   0.82081109   0.87363798   0.92944728   0.9905892 ]
nelec by numeric integration = 146.00000358625311
    CPU time for vxc     37.68 sec, wall time     15.67 sec
E1 = -4056.1080281285786  Ecoul = 1873.118244960439  Exc = -124.4833567230806
cycle= 3 E= -835.836251384993  delta_E= -0.0333  |g|= 0.191  |ddm|= 0.815
    CPU time for cycle= 3     38.26 sec, wall time     15.75 sec
  HOMO = -0.107014677373944  LUMO = -0.0169169461470947
  mo_energy =
[-10.02903446 -10.02753635 -10.02568641 -10.02541819 -10.02482791
 -10.02293812 -10.0225613  -10.02197992 -10.02147959 -10.0207962
 -10.02007898 -10.01507009 -10.01134925 -10.01095083 -10.01071988
 -10.00740284 -10.00673319 -10.00627604 -10.00511336  -9.99926341
  -9.99660329  -9.98759836  -0.84134037  -0.82396106  -0.81118262
  -0.77647714  -0.75068098  -0.74126852  -0.73934062  -0.72629742
  -0.69457864  -0.66568036  -0.64153391  -0.62323469  -0.59337672
  -0.58238554  -0.56436887  -0.55417331  -0.53785078  -0.52305258
  -0.49965687  -0.49522986  -0.46757304  -0.45748304  -0.44067456
  -0.42799978  -0.41940529  -0.41470274  -0.40873701  -0.39566826
  -0.38278339  -0.37569003  -0.36976488  -0.3567315   -0.34736375
  -0.34419536  -0.3370185   -0.33206904  -0.31838401  -0.31585991
  -0.30774511  -0.28480445  -0.27533681  -0.26707864  -0.25602223
  -0.24471984  -0.23823768  -0.22711329  -0.22153875  -0.21180004
  -0.18012975  -0.14226219  -0.10701468  -0.01691695   0.01928919
   0.06458319   0.09159588   0.1094628    0.1385511    0.15134792
   0.17402969   0.22493987   0.23342867   0.25830408   0.27608319
   0.28950325   0.29735721   0.30180037   0.30516582   0.31890204
   0.33828266   0.35171971   0.37460378   0.38195101   0.39464718
   0.40784393   0.41109557   0.42550903   0.45185241   0.45691951
   0.4617972    0.49270681   0.50813266   0.51821956   0.52742001
   0.54251729   0.57983981   0.6174539    0.62296406   0.63301899
   0.65464372   0.66886487   0.69853188   0.70959711   0.71708466
   0.73770051   0.75602129   0.76486856   0.79775687   0.80667225
   0.82038398   0.86796572   0.92004756   0.99210134]
nelec by numeric integration = 146.0000036087216
    CPU time for vxc     38.26 sec, wall time     15.90 sec
E1 = -4055.824460436407  Ecoul = 1872.8321542060519  Exc = -124.49355186539717
cycle= 4 E= -835.848969589525  delta_E= -0.0127  |g|= 0.0742  |ddm|= 0.417
    CPU time for cycle= 4     38.71 sec, wall time     15.97 sec
  HOMO = -0.108868092622289  LUMO = -0.0181634436418134
  mo_energy =
[-10.02921328 -10.02812931 -10.0279478  -10.02775966 -10.02725128
 -10.02614752 -10.02502152 -10.01959325 -10.01720921 -10.01602818
 -10.01548193 -10.01526964 -10.01253381 -10.01225096 -10.01084035
 -10.0100604  -10.00813047 -10.00743821 -10.00654978 -10.00645396
 -10.00406873  -9.99270382  -0.84103989  -0.82547672  -0.80945635
  -0.7764842   -0.75124946  -0.74224573  -0.73789473  -0.72675858
  -0.69583089  -0.66781526  -0.64301563  -0.62404226  -0.59428903
  -0.58238825  -0.56542072  -0.55426311  -0.53711291  -0.52423897
  -0.49953567  -0.49701501  -0.46735119  -0.45739479  -0.44144962
  -0.42650154  -0.42193059  -0.41649567  -0.41009255  -0.39504121
  -0.3823551   -0.3779612   -0.37108248  -0.35719851  -0.34635775
  -0.34402084  -0.33786851  -0.33307957  -0.31768195  -0.3154471
  -0.30911947  -0.28601742  -0.27600247  -0.26791936  -0.2575642
  -0.24544505  -0.2395162   -0.22909318  -0.22159662  -0.21200839
  -0.18171292  -0.14461301  -0.10886809  -0.01816344   0.01757763
   0.06317773   0.09190228   0.1077729    0.13893484   0.14999208
   0.17368426   0.22433194   0.23329603   0.25770532   0.2742703
   0.28814068   0.29750003   0.29917366   0.30153671   0.31773598
   0.33709139   0.35069202   0.37560689   0.37834224   0.39102044
   0.40577511   0.41279496   0.42464317   0.45032206   0.45901986
   0.46236307   0.49108671   0.5107713    0.51437022   0.52861673
   0.54180522   0.57714617   0.61723883   0.62120368   0.63172327
   0.65222495   0.67078387   0.69752646   0.7109449    0.71729114
   0.74105037   0.75501925   0.765848     0.798643     0.8061218
   0.81990011   0.87084701   0.91848655   0.99104674]
nelec by numeric integration = 146.00000359777377
    CPU time for vxc     37.79 sec, wall time     15.71 sec
E1 = -4055.915695816302  Ecoul = 1872.921741252846  Exc = -124.49373690264683
cycle= 5 E= -835.850802959875  delta_E= -0.00183  |g|= 0.0282  |ddm|= 0.162
    CPU time for cycle= 5     38.32 sec, wall time     15.79 sec
  HOMO = -0.108507920833941  LUMO = -0.0176591366427643
  mo_energy =
[-10.03148381 -10.03048284 -10.02783105 -10.02697206 -10.02623756
 -10.02466571 -10.02186347 -10.0205883  -10.02042182 -10.01828519
 -10.01395285 -10.01306046 -10.01290624 -10.0120036  -10.01046459
 -10.009369   -10.00809235 -10.00639842 -10.00411967 -10.00274851
 -10.00051441  -9.99109464  -0.84167052  -0.82415843  -0.8093226
  -0.77563343  -0.75122327  -0.74146702  -0.73798645  -0.72632415
  -0.69577139  -0.66749464  -0.64217004  -0.62365033  -0.59430015
  -0.58191707  -0.56439166  -0.55445267  -0.53725133  -0.52344158
  -0.49921468  -0.49610158  -0.46737131  -0.45756118  -0.44053574
  -0.42657551  -0.42140797  -0.41557812  -0.40991561  -0.39547869
  -0.3826855   -0.376992    -0.37158195  -0.35740611  -0.34713131
  -0.34388066  -0.33760674  -0.33247775  -0.31722832  -0.31534849
  -0.30825018  -0.28528423  -0.27554492  -0.26746043  -0.25740299
  -0.2453153   -0.23936068  -0.22810466  -0.22121432  -0.21171629
  -0.18164816  -0.14423183  -0.10850792  -0.01765914   0.0179675
   0.06336663   0.09218845   0.10905105   0.13870167   0.15005291
   0.17399404   0.22460074   0.23420981   0.25801433   0.27477021
   0.28840343   0.29699662   0.30008012   0.3028945    0.31772835
   0.33757937   0.35128785   0.37670545   0.37944713   0.39189575
   0.40667039   0.4118502    0.42457174   0.4509329    0.45815924
   0.4619398    0.49148118   0.51010699   0.51588869   0.52789601
   0.54145131   0.57706025   0.61852705   0.62150022   0.63235451
   0.65379133   0.66975661   0.69878542   0.71107969   0.71715655
   0.73935125   0.75636528   0.76499978   0.79891521   0.80710335
   0.81982598   0.8693082    0.92007886   0.99428882]
nelec by numeric integration = 146.00000359827
    CPU time for vxc     38.44 sec, wall time     15.93 sec
E1 = -4055.942843044856  Ecoul = 1872.9473478866944  Exc = -124.49246748112839
cycle= 6 E= -835.851074133063  delta_E= -0.000271  |g|= 0.0101  |ddm|= 0.0588
    CPU time for cycle= 6     39.04 sec, wall time     16.02 sec
  HOMO = -0.108149928134797  LUMO = -0.0172017985649221
  mo_energy =
[-10.02947147 -10.02854949 -10.02733036 -10.02587023 -10.02529506
 -10.02437772 -10.02142123 -10.02126784 -10.01823788 -10.01723669
 -10.01383929 -10.01263951 -10.01228833 -10.01073633 -10.00965301
 -10.00855779 -10.00758526 -10.00479299 -10.00439731 -10.00253099
 -10.00241592  -9.99228001  -0.84083778  -0.82380091  -0.8090966
  -0.77550892  -0.75053633  -0.74118811  -0.7377467   -0.72588687
  -0.6951014   -0.66700974  -0.64192675  -0.62326411  -0.59372027
  -0.58164158  -0.56426043  -0.55405375  -0.53689087  -0.52329398
  -0.49890398  -0.49587943  -0.46698985  -0.45704265  -0.44034874
  -0.42657005  -0.42096264  -0.41544703  -0.40955071  -0.3949507
  -0.38220564  -0.37685649  -0.37095707  -0.35686836  -0.34648856
  -0.34351948  -0.33715723  -0.33206582  -0.31704049  -0.31501377
  -0.30807899  -0.28498676  -0.2752814   -0.26716016  -0.25679382
  -0.24487672  -0.23896205  -0.2277844   -0.22094697  -0.21133097
  -0.18103876  -0.1437865   -0.10814993  -0.0172018    0.01850717
   0.06397914   0.09259227   0.10937429   0.13907096   0.15078522
   0.17436966   0.22506906   0.23434513   0.25845246   0.27529977
   0.28884479   0.29756171   0.30030239   0.30311261   0.31833607
   0.33800243   0.35162958   0.37678948   0.37985086   0.39237988
   0.40673218   0.41239171   0.42518061   0.45116554   0.45869078
   0.46223886   0.49195702   0.51047517   0.5159117    0.52852962
   0.54201973   0.57778778   0.61849289   0.62208133   0.63283689
   0.65377457   0.67039698   0.69901414   0.71123511   0.71752784
   0.74014595   0.75660392   0.76583883   0.79926093   0.80730574
   0.82038055   0.87003603   0.92040602   0.99369671]
nelec by numeric integration = 146.0000035981091
    CPU time for vxc     38.06 sec, wall time     15.76 sec
E1 = -4055.886496477609  Ecoul = 1872.8901935586832  Exc = -124.49169694410364
cycle= 7 E= -835.851111356802  delta_E= -3.72e-05  |g|= 0.00314  |ddm|= 0.0192
    CPU time for cycle= 7     38.37 sec, wall time     15.81 sec
  HOMO = -0.108114657595705  LUMO = -0.0171421159649696
  mo_energy =
[-10.0295441  -10.02853924 -10.02723975 -10.0258587  -10.02548253
 -10.02454141 -10.02158122 -10.02106568 -10.01855517 -10.01696154
 -10.01369483 -10.01265569 -10.01241562 -10.01039579 -10.00888354
 -10.00878143 -10.00776865 -10.00510801 -10.00422081 -10.00255763
 -10.00249936  -9.99203884  -0.84086165  -0.82386559  -0.80899465
  -0.77545172  -0.75061367  -0.74118991  -0.73769535  -0.7258779
  -0.69512233  -0.66698385  -0.64187747  -0.62324947  -0.59374533
  -0.58162146  -0.56425292  -0.55403114  -0.53687538  -0.52332678
  -0.49889209  -0.49589633  -0.46696537  -0.45703076  -0.44034599
  -0.42646409  -0.42097996  -0.41549061  -0.40958428  -0.39490803
  -0.38215915  -0.37684952  -0.37097811  -0.35685447  -0.34647933
  -0.34348993  -0.33715234  -0.33208879  -0.31698296  -0.31498993
  -0.30803076  -0.28503345  -0.2752356   -0.26714807  -0.25685089
  -0.2448881   -0.23894761  -0.22782487  -0.22093374  -0.21129294
  -0.18104793  -0.14375743  -0.10811466  -0.01714212   0.01853673
   0.063975     0.09265148   0.10929815   0.1391703    0.15069038
   0.17440292   0.22503353   0.23436921   0.25846485   0.27525227
   0.28882276   0.2976352    0.30028216   0.30314761   0.31829569
   0.33799241   0.35166263   0.37690255   0.37981229   0.39231794
   0.40673379   0.41245584   0.42513706   0.45116757   0.45876753
   0.46233588   0.49190724   0.51057684   0.51601283   0.52852484
   0.5420296    0.57772572   0.61856267   0.62202763   0.63276023
   0.6538341    0.67049371   0.69892979   0.71130721   0.71754198
   0.74021346   0.75652304   0.76581782   0.79931091   0.80727928
   0.82038441   0.87015014   0.92033866   0.99365401]
nelec by numeric integration = 146.00000359794592
    CPU time for vxc     38.72 sec, wall time     15.89 sec
E1 = -4055.889864024172  Ecoul = 1872.8935267247841  Exc = -124.4916658278402
cycle= 8 E= -835.851114621001  delta_E= -3.26e-06  |g|= 0.000905  |ddm|= 0.00568
    CPU time for cycle= 8     39.32 sec, wall time     15.98 sec
  HOMO = -0.108136842251871  LUMO = -0.0171459999016262
  mo_energy =
[-10.02961301 -10.02860489 -10.02722755 -10.02576668 -10.02550024
 -10.02455251 -10.02177244 -10.02110132 -10.01867645 -10.01704432
 -10.01365567 -10.0125475  -10.01235535 -10.01046731 -10.00900918
 -10.00874974 -10.00782606 -10.00506662 -10.00422133 -10.00259606
 -10.00246913  -9.99183827  -0.84091465  -0.82385632  -0.80901741
  -0.77550887  -0.75061237  -0.74117644  -0.73768668  -0.72586976
  -0.69512516  -0.66699346  -0.64188926  -0.62325975  -0.59374881
  -0.58163179  -0.5642661   -0.55403716  -0.53686242  -0.52333986
  -0.49890207  -0.49591375  -0.46696835  -0.45704622  -0.44035
  -0.42645638  -0.42100479  -0.41550138  -0.40957852  -0.39493129
  -0.38217334  -0.37686342  -0.37098275  -0.35687199  -0.34648215
  -0.34349735  -0.33715121  -0.3320822   -0.31698911  -0.31500296
  -0.30801636  -0.28506755  -0.27526622  -0.26715895  -0.25683983
  -0.2448779   -0.23894396  -0.22782868  -0.22093415  -0.21128722
  -0.18104975  -0.14377008  -0.10813684  -0.017146     0.01853283
   0.06397348   0.09265034   0.10929114   0.13918856   0.15070059
   0.17435961   0.22499061   0.23435538   0.25846808   0.27524319
   0.28881254   0.29764118   0.30026574   0.30313943   0.31828789
   0.33800527   0.35167359   0.37689883   0.3798026    0.39229123
   0.40671113   0.41245483   0.42514403   0.45117712   0.45875301
   0.4623412    0.49191903   0.51057561   0.51597138   0.52852841
   0.54202781   0.57772233   0.61858459   0.62205185   0.63277238
   0.65375863   0.67048311   0.69893373   0.71129996   0.71755725
   0.74017964   0.75651972   0.76578703   0.79929913   0.80729075
   0.82038502   0.87013089   0.92034237   0.99356103]
nelec by numeric integration = 146.00000359820405
    CPU time for vxc     38.41 sec, wall time     15.97 sec
E1 = -4055.8915985099707  Ecoul = 1872.8953003026775  Exc = -124.49170518205773
cycle= 9 E= -835.851114883124  delta_E= -2.62e-07  |g|= 0.000385  |ddm|= 0.00186
    CPU time for cycle= 9     38.99 sec, wall time     16.06 sec
  HOMO = -0.108141986867536  LUMO = -0.0171416803243267
  mo_energy =
[-10.02956084 -10.02857688 -10.02727435 -10.02582959 -10.02548916
 -10.02458061 -10.02168591 -10.02111447 -10.01861151 -10.0170362
 -10.01366995 -10.01257607 -10.01242814 -10.01047529 -10.00898585
 -10.0087952  -10.0078143  -10.00507015 -10.00421732 -10.00254052
 -10.00250701  -9.99193184  -0.84088816  -0.82388344  -0.80901774
  -0.77548375  -0.75061226  -0.74119416  -0.73770149  -0.72588225
  -0.69512848  -0.66699039  -0.64188922  -0.62326718  -0.59375462
  -0.58163385  -0.56427423  -0.55403651  -0.53687524  -0.52333089
  -0.49890808  -0.49591721  -0.46696762  -0.45704495  -0.44035943
  -0.42646422  -0.42099717  -0.41549379  -0.40957848  -0.3949266
  -0.38217441  -0.37686122  -0.37097481  -0.35686349  -0.34648037
  -0.34349496  -0.33716044  -0.33209946  -0.31699257  -0.31500228
  -0.30803337  -0.28504827  -0.27525636  -0.26715626  -0.25684607
  -0.24488457  -0.23894825  -0.22783494  -0.22094069  -0.21129944
  -0.18105438  -0.14377309  -0.10814199  -0.01714168   0.01853289
   0.0639709    0.09264351   0.10928616   0.13916737   0.15069548
   0.17437995   0.22501691   0.23435168   0.25845396   0.27524955
   0.28881802   0.29763402   0.30027818   0.30313726   0.3182907
   0.33799208   0.35166863   0.37689098   0.37980316   0.39230528
   0.40672835   0.41245499   0.42513691   0.4511793    0.45876204
   0.46233374   0.49190881   0.51056963   0.51597704   0.52851902
   0.54202384   0.57771762   0.61856554   0.62203301   0.63275005
   0.65378942   0.67047795   0.69891349   0.711297     0.7175486
   0.74018562   0.75650163   0.76579951   0.79929392   0.80726773
   0.82038036   0.87012693   0.92031153   0.99361607]
nelec by numeric integration = 146.0000035981373
    CPU time for vxc     38.00 sec, wall time     15.77 sec
E1 = -4055.891426597502  Ecoul = 1872.8951440519118  Exc = -124.49172090108338
cycle= 10 E= -835.851114940446  delta_E= -5.73e-08  |g|= 9.96e-05  |ddm|= 0.000726
    CPU time for cycle= 10     38.72 sec, wall time     15.88 sec
  HOMO = -0.108146431221337  LUMO = -0.0171452042787384
  mo_energy =
[-10.02958944 -10.028592   -10.02725705 -10.02581014 -10.02549207
 -10.0245608  -10.02167593 -10.02111048 -10.01862434 -10.01704029
 -10.01368571 -10.01257188 -10.01240894 -10.01048008 -10.00899074
 -10.00880941 -10.00780525 -10.00507799 -10.00423566 -10.00256991
 -10.00248492  -9.99194047  -0.84089775  -0.82387119  -0.80902035
  -0.77549143  -0.7506147   -0.74118954  -0.73770055  -0.72588283
  -0.69513119  -0.66699533  -0.64189119  -0.6232673   -0.59375573
  -0.58163607  -0.56427081  -0.5540406   -0.53687507  -0.52333318
  -0.49890816  -0.4959139   -0.46697268  -0.4570471   -0.4403567
  -0.42646691  -0.4209982   -0.41549577  -0.40957883  -0.39492969
  -0.3821764   -0.37685943  -0.37098059  -0.3568697   -0.34648521
  -0.34349978  -0.33715939  -0.3320932   -0.31699514  -0.31500355
  -0.30803259  -0.28505239  -0.27526036  -0.26715803  -0.25684719
  -0.24488607  -0.23895072  -0.22783191  -0.22094118  -0.2113004
  -0.18105704  -0.14377685  -0.10814643  -0.0171452    0.01852903
   0.06396863   0.09264137   0.10929105   0.13916642   0.15069489
   0.1743727    0.2250105    0.23435307   0.25845721   0.27524628
   0.28881648   0.29763032   0.30027588   0.30313934   0.31828865
   0.33799405   0.35166385   0.37688502   0.37980249   0.39230343
   0.4067219    0.41245082   0.42513741   0.45117516   0.45875374
   0.46232995   0.49191016   0.5105648    0.51597766   0.52851871
   0.54202072   0.57771618   0.61856228   0.62203432   0.63275825
   0.65378356   0.67047435   0.69892453   0.71129315   0.71754355
   0.74017996   0.75651435   0.7657911    0.79928911   0.80727642
   0.82037634   0.87012117   0.92032682   0.9936075 ]
nelec by numeric integration = 146.00000359814908
    CPU time for vxc     37.86 sec, wall time     15.68 sec
E1 = -4055.8914925395375  Ecoul = 1872.8952120278027  Exc = -124.49172293834202
cycle= 11 E= -835.851114943849  delta_E= -3.4e-09  |g|= 4.86e-05  |ddm|= 0.000207
    CPU time for cycle= 11     38.17 sec, wall time     15.73 sec
  HOMO = -0.108145727284185  LUMO = -0.0171431701978355
  mo_energy =
[-10.02958677 -10.02858851 -10.02725874 -10.02581649 -10.02549052
 -10.02456232 -10.0216815  -10.02111478 -10.01862291 -10.01704451
 -10.01367944 -10.01257548 -10.01241229 -10.01048176 -10.00898481
 -10.00879734 -10.00780471 -10.00507677 -10.00422774 -10.00256043
 -10.00248799  -9.99193361  -0.84089665  -0.82387293  -0.80902012
  -0.77548978  -0.75061349  -0.74118989  -0.73770052  -0.72588194
  -0.69513037  -0.66699385  -0.64188992  -0.62326671  -0.59375501
  -0.58163499  -0.56427078  -0.55403991  -0.53687507  -0.52333259
  -0.49890745  -0.49591395  -0.46697129  -0.45704694  -0.44035636
  -0.42646631  -0.42099802  -0.41549485  -0.40957852  -0.39492999
  -0.38217611  -0.37685983  -0.37098017  -0.35686883  -0.34648456
  -0.34349875  -0.33715948  -0.33209418  -0.31699409  -0.31500334
  -0.3080317   -0.28505179  -0.27525971  -0.26715809  -0.25684677
  -0.2448855   -0.2389502   -0.22783229  -0.22094067  -0.21129982
  -0.18105668  -0.14377532  -0.10814573  -0.01714317   0.01853084
   0.06396918   0.09264221   0.10929075   0.13916645   0.15069574
   0.17437395   0.225011     0.23435294   0.25845636   0.27524653
   0.28881616   0.29763047   0.30027577   0.30313874   0.31828868
   0.33799389   0.35166515   0.37688855   0.379803     0.39230314
   0.40672366   0.41245033   0.42513731   0.4511766    0.45875446
   0.4623304    0.49191015   0.51056569   0.51597835   0.52851862
   0.542021     0.57771675   0.61856585   0.62203542   0.63275705
   0.65378502   0.67047398   0.69892312   0.71129449   0.71754566
   0.74017981   0.75651327   0.7657928    0.79929132   0.80727596
   0.8203778    0.87012115   0.9203253    0.9936096 ]
nelec by numeric integration = 146.00000359814592
    CPU time for vxc     38.39 sec, wall time     15.87 sec
E1 = -4055.891509501855  Ecoul = 1872.8952271726025  Exc = -124.49172112174301
cycle= 12 E= -835.851114944768  delta_E= -9.19e-10  |g|= 1.81e-05  |ddm|= 0.000107
    CPU time for cycle= 12     38.90 sec, wall time     15.95 sec
  HOMO = -0.108145395919673  LUMO = -0.0171425864254295
  mo_energy =
[-10.02958365 -10.02858866 -10.02725879 -10.02581388 -10.02549261
 -10.02456264 -10.02168178 -10.02111236 -10.01862299 -10.01703882
 -10.01367734 -10.01257073 -10.01241439 -10.0104788  -10.00898541
 -10.00880194 -10.00780473 -10.00507732 -10.00422643 -10.00255887
 -10.00248919  -9.99193389  -0.840896    -0.82387278  -0.80901912
  -0.77548903  -0.75061372  -0.74118978  -0.73770022  -0.72588129
  -0.69512978  -0.66699358  -0.6418895   -0.62326641  -0.59375483
  -0.58163437  -0.56427043  -0.55403946  -0.53687474  -0.52333278
  -0.49890708  -0.49591401  -0.46697073  -0.45704622  -0.44035604
  -0.42646583  -0.42099807  -0.41549501  -0.40957869  -0.39492905
  -0.38217567  -0.37685983  -0.37098007  -0.35686832  -0.34648413
  -0.34349787  -0.33715879  -0.33209377  -0.31699339  -0.31500288
  -0.30803137  -0.28505171  -0.2752591   -0.26715735  -0.25684655
  -0.24488533  -0.23895001  -0.22783207  -0.2209404   -0.21129885
  -0.18105611  -0.14377511  -0.1081454   -0.01714259   0.01853111
   0.06396989   0.09264321   0.10929103   0.13916712   0.15069542
   0.17437458   0.22501103   0.23435339   0.25845698   0.27524686
   0.28881634   0.29763093   0.30027586   0.30313951   0.31828885
   0.33799401   0.35166551   0.37688979   0.37980326   0.39230333
   0.40672342   0.41245132   0.42513731   0.45117671   0.4587558
   0.46233121   0.49191016   0.51056699   0.51597853   0.52851894
   0.54202169   0.5777165    0.61856591   0.62203528   0.63275709
   0.65378521   0.67047558   0.69892294   0.71129503   0.71754566
   0.74018108   0.75651292   0.76579311   0.79929242   0.80727584
   0.8203778    0.87012248   0.92032509   0.99360996]
nelec by numeric integration = 146.00000359814427
    CPU time for vxc     38.43 sec, wall time     15.89 sec
E1 = -4055.8914855109033  Ecoul = 1872.8952026022603  Exc = -124.49172054242617
cycle= 13 E= -835.851114944842  delta_E= -7.37e-11  |g|= 1.22e-05  |ddm|= 4.27e-05
    CPU time for cycle= 13     38.94 sec, wall time     15.96 sec
  HOMO = -0.108145254571743  LUMO = -0.0171424625783249
  mo_energy =
[-10.02958292 -10.0285875  -10.0272595  -10.02581433 -10.0254912
 -10.0245638  -10.02168071 -10.02111289 -10.01862297 -10.01704061
 -10.01367855 -10.01257207 -10.01241298 -10.01048043 -10.00898394
 -10.0088019  -10.0078059  -10.00507321 -10.00422918 -10.00255861
 -10.00248987  -9.99193332  -0.84089549  -0.82387343  -0.80901924
  -0.77548877  -0.75061362  -0.74118986  -0.73770033  -0.7258817
  -0.69512969  -0.6669932   -0.64188946  -0.62326657  -0.59375477
  -0.58163464  -0.56427074  -0.55403923  -0.5368749   -0.52333246
  -0.4989073   -0.49591399  -0.4669708   -0.45704625  -0.44035641
  -0.42646585  -0.42099752  -0.41549469  -0.40957852  -0.39492912
  -0.3821757   -0.37685969  -0.37097937  -0.35686789  -0.34648414
  -0.34349814  -0.3371591   -0.33209412  -0.31699371  -0.31500296
  -0.30803148  -0.28505135  -0.27525888  -0.26715743  -0.25684655
  -0.2448852   -0.23894955  -0.22783219  -0.22094042  -0.21129933
  -0.18105598  -0.14377486  -0.10814525  -0.01714246   0.01853128
   0.06396998   0.09264266   0.10929072   0.13916726   0.15069551
   0.17437486   0.22501165   0.23435326   0.25845674   0.27524713
   0.28881662   0.29763135   0.30027628   0.30313955   0.31828905
   0.33799402   0.35166567   0.37688873   0.3798035    0.39230386
   0.406724     0.41245125   0.42513735   0.45117696   0.45875567
   0.46233117   0.49191011   0.5105665    0.5159788    0.52851876
   0.54202187   0.57771719   0.61856546   0.62203525   0.63275672
   0.65378581   0.67047532   0.6989224    0.71129496   0.7175459
   0.74018079   0.75651228   0.76579341   0.7992918    0.80727542
   0.82037828   0.87012238   0.92032432   0.99361071]
nelec by numeric integration = 146.0000035981466
    CPU time for vxc     38.19 sec, wall time     15.84 sec
E1 = -4055.891449554458  Ecoul = 1872.895167187146  Exc = -124.4917210837743
cycle= 14 E= -835.851114944859  delta_E= -1.73e-11  |g|= 1.07e-05  |ddm|= 3.51e-05
    CPU time for cycle= 14     38.58 sec, wall time     15.91 sec
  HOMO = -0.108145494953  LUMO = -0.0171426413934052
  mo_energy =
[-10.02958345 -10.02858805 -10.02725974 -10.02581493 -10.02549113
 -10.02456398 -10.02168105 -10.02111268 -10.01862256 -10.01704021
 -10.01367834 -10.01257277 -10.012413   -10.01047958 -10.00898528
 -10.00880101 -10.00780615 -10.00507574 -10.00422785 -10.00255994
 -10.00248964  -9.99193384  -0.84089575  -0.82387358  -0.80901926
  -0.77548905  -0.75061363  -0.74119002  -0.73770033  -0.72588171
  -0.69512988  -0.6669935   -0.64188967  -0.62326665  -0.5937549
  -0.58163469  -0.56427089  -0.55403936  -0.53687488  -0.52333268
  -0.49890738  -0.49591425  -0.46697083  -0.45704634  -0.44035649
  -0.42646586  -0.4209979   -0.41549501  -0.40957863  -0.39492919
  -0.3821757   -0.37685994  -0.37097961  -0.35686813  -0.346484
  -0.34349812  -0.33715918  -0.33209425  -0.31699368  -0.315003
  -0.30803163  -0.28505158  -0.27525914  -0.26715757  -0.25684665
  -0.24488532  -0.23894981  -0.22783244  -0.22094053  -0.21129929
  -0.18105619  -0.14377513  -0.10814549  -0.01714264   0.01853107
   0.06396979   0.09264278   0.10929049   0.13916713   0.15069546
   0.17437466   0.22501145   0.23435311   0.25845662   0.27524685
   0.28881641   0.29763124   0.30027595   0.30313911   0.31828888
   0.33799389   0.35166554   0.3768891    0.37980302   0.39230343
   0.40672359   0.41245139   0.42513729   0.45117672   0.4587557
   0.46233118   0.49190998   0.5105667    0.51597831   0.52851885
   0.5420217    0.57771678   0.61856559   0.62203517   0.63275661
   0.65378528   0.67047537   0.6989223    0.71129492   0.71754581
   0.74018097   0.75651221   0.76579335   0.79929192   0.80727536
   0.82037806   0.87012243   0.92032417   0.99361004]
nelec by numeric integration = 146.00000359814618
    CPU time for vxc     37.76 sec, wall time     15.68 sec
E1 = -4055.891478585177  Ecoul = 1872.8951965079686  Exc = -124.49172137392006
cycle= 15 E= -835.851114944901  delta_E= -4.18e-11  |g|= 2.57e-06  |ddm|= 2.12e-05
    CPU time for cycle= 15     38.29 sec, wall time     15.76 sec
  HOMO = -0.10814557707278  LUMO = -0.0171427212050126
  mo_energy =
[-10.02958446 -10.02858835 -10.02725939 -10.02581456 -10.02549202
 -10.0245635  -10.02168067 -10.0211134  -10.01862367 -10.01704125
 -10.01367842 -10.0125723  -10.01241353 -10.01048076 -10.00898445
 -10.00880225 -10.00780526 -10.0050753  -10.00422794 -10.00255852
 -10.00248955  -9.99193365  -0.84089607  -0.82387334  -0.80901948
  -0.77548905  -0.75061386  -0.74118997  -0.73770048  -0.72588182
  -0.69513004  -0.66699357  -0.64188964  -0.62326675  -0.59375506
  -0.58163475  -0.56427075  -0.55403956  -0.53687506  -0.52333261
  -0.49890744  -0.4959141   -0.466971    -0.45704655  -0.44035642
  -0.42646596  -0.42099785  -0.41549485  -0.40957863  -0.39492941
  -0.38217595  -0.37685974  -0.37097984  -0.35686834  -0.34648439
  -0.34349828  -0.33715924  -0.3320942   -0.31699378  -0.31500311
  -0.30803159  -0.28505158  -0.27525916  -0.26715758  -0.25684677
  -0.24488545  -0.23894993  -0.22783227  -0.22094058  -0.21129943
  -0.18105635  -0.14377519  -0.10814558  -0.01714272   0.01853097
   0.06396965   0.0926426    0.10929072   0.13916688   0.15069529
   0.17437454   0.22501131   0.23435315   0.25845657   0.27524683
   0.28881638   0.29763092   0.30027611   0.30313942   0.31828877
   0.33799385   0.35166544   0.3768889    0.37980326   0.39230355
   0.40672378   0.41245099   0.42513714   0.4511768    0.45875538
   0.46233093   0.49190997   0.51056634   0.51597866   0.52851852
   0.54202144   0.57771663   0.61856552   0.62203502   0.63275665
   0.65378552   0.67047492   0.69892255   0.71129476   0.71754557
   0.74018041   0.75651251   0.76579289   0.79929169   0.80727549
   0.82037783   0.87012189   0.92032448   0.99361056]
nelec by numeric integration = 146.00000359814672
    CPU time for vxc     38.56 sec, wall time     15.95 sec
E1 = -4055.8914926047128  Ecoul = 1872.8952106689162  Exc = -124.49172151531384
Extra cycle  E= -835.851114944883  delta_E= 1.77e-11  |g|= 6.34e-06  |ddm|= 1.54e-05
    CPU time for scf_cycle    665.51 sec, wall time    272.25 sec
    CPU time for SCF    665.51 sec, wall time    272.25 sec
converged SCF energy = -835.851114944883
nelec by numeric integration = 146.00000359814672
    CPU time for vxc     38.34 sec, wall time     15.84 sec
 ** Mulliken pop  **
pop of  0 C 1s            1.99155
pop of  0 C 2s            1.24452
pop of  0 C 2px           0.95629
pop of  0 C 2py           0.89891
pop of  0 C 2pz           0.90483
pop of  1 C 1s            1.99101
pop of  1 C 2s            1.17409
pop of  1 C 2px           0.99080
pop of  1 C 2py           0.92567
pop of  1 C 2pz           0.90704
pop of  2 C 1s            1.99141
pop of  2 C 2s            1.18690
pop of  2 C 2px           0.95354
pop of  2 C 2py           0.94793
pop of  2 C 2pz           0.95440
pop of  3 C 1s            1.99116
pop of  3 C 2s            1.21127
pop of  3 C 2px           1.01515
pop of  3 C 2py           0.90378
pop of  3 C 2pz           0.94605
pop of  4 C 1s            1.99065
pop of  4 C 2s            1.06793
pop of  4 C 2px           1.04103
pop of  4 C 2py           0.98332
pop of  4 C 2pz           1.06828
pop of  5 C 1s            1.99104
pop of  5 C 2s            1.19122
pop of  5 C 2px           0.99073
pop of  5 C 2py           0.92319
pop of  5 C 2pz           0.97190
pop of  6 C 1s            1.99078
pop of  6 C 2s            1.08727
pop of  6 C 2px           0.98943
pop of  6 C 2py           1.04766
pop of  6 C 2pz           0.97262
pop of  7 C 1s            1.99063
pop of  7 C 2s            1.11629
pop of  7 C 2px           1.03697
pop of  7 C 2py           1.02795
pop of  7 C 2pz           0.97348
pop of  8 C 1s            1.99119
pop of  8 C 2s            1.11081
pop of  8 C 2px           0.99788
pop of  8 C 2py           0.99102
pop of  8 C 2pz           0.93542
pop of  9 C 1s            1.99121
pop of  9 C 2s            1.17189
pop of  9 C 2px           0.97405
pop of  9 C 2py           0.93592
pop of  9 C 2pz           0.91249
pop of  10 C 1s           1.99135
pop of  10 C 2s           1.13357
pop of  10 C 2px          0.98752
pop of  10 C 2py          0.98254
pop of  10 C 2pz          1.00182
pop of  11 C 1s           1.99076
pop of  11 C 2s           1.14725
pop of  11 C 2px          1.01643
pop of  11 C 2py          0.95092
pop of  11 C 2pz          0.96827
pop of  12 C 1s           1.99107
pop of  12 C 2s           1.14322
pop of  12 C 2px          0.98868
pop of  12 C 2py          0.91470
pop of  12 C 2pz          0.94239
pop of  13 C 1s           1.99037
pop of  13 C 2s           1.09034
pop of  13 C 2px          1.02201
pop of  13 C 2py          0.95518
pop of  13 C 2pz          0.96710
pop of  14 C 1s           1.99109
pop of  14 C 2s           1.19913
pop of  14 C 2px          1.02649
pop of  14 C 2py          0.89964
pop of  14 C 2pz          0.96227
pop of  15 C 1s           1.99101
pop of  15 C 2s           1.15631
pop of  15 C 2px          0.97649
pop of  15 C 2py          0.94648
pop of  15 C 2pz          0.98147
pop of  16 C 1s           1.99116
pop of  16 C 2s           1.16228
pop of  16 C 2px          0.96863
pop of  16 C 2py          0.96314
pop of  16 C 2pz          0.91400
pop of  17 C 1s           1.99076
pop of  17 C 2s           1.13507
pop of  17 C 2px          0.99072
pop of  17 C 2py          0.95380
pop of  17 C 2pz          0.94934
pop of  18 C 1s           1.99092
pop of  18 C 2s           1.14395
pop of  18 C 2px          1.01460
pop of  18 C 2py          0.96673
pop of  18 C 2pz          1.01908
pop of  19 C 1s           1.99066
pop of  19 C 2s           1.14031
pop of  19 C 2px          0.98932
pop of  19 C 2py          0.94598
pop of  19 C 2pz          1.00135
pop of  20 C 1s           1.99136
pop of  20 C 2s           1.20334
pop of  20 C 2px          0.96420
pop of  20 C 2py          0.95724
pop of  20 C 2pz          0.95735
pop of  21 C 1s           1.99084
pop of  21 C 2s           1.12225
pop of  21 C 2px          1.03139
pop of  21 C 2py          1.02663
pop of  21 C 2pz          0.95851
pop of  22 H 1s           0.95256
pop of  23 H 1s           0.91651
pop of  24 H 1s           0.87424
pop of  25 H 1s           0.93197
pop of  26 H 1s           0.88854
pop of  27 H 1s           0.88196
pop of  28 H 1s           0.91398
pop of  29 H 1s           0.92493
pop of  30 H 1s           0.90621
pop of  31 H 1s           0.92829
pop of  32 H 1s           0.90785
pop of  33 H 1s           0.91179
pop of  34 H 1s           0.89853
pop of  35 H 1s           0.88132
 ** Mulliken atomic charges  **
charge of    0C =      0.00390
charge of    1C =      0.01139
charge of    2C =     -0.03417
charge of    3C =     -0.06741
charge of    4C =     -0.15122
charge of    5C =     -0.06807
charge of    6C =     -0.08776
charge of    7C =     -0.14531
charge of    8C =     -0.02633
charge of    9C =      0.01444
charge of   10C =     -0.09680
charge of   11C =     -0.07364
charge of   12C =      0.01994
charge of   13C =     -0.02500
charge of   14C =     -0.07862
charge of   15C =     -0.05176
charge of   16C =      0.00079
charge of   17C =     -0.01968
charge of   18C =     -0.13528
charge of   19C =     -0.06762
charge of   20C =     -0.07350
charge of   21C =     -0.12962
charge of   22H =      0.04744
charge of   23H =      0.08349
charge of   24H =      0.12576
charge of   25H =      0.06803
charge of   26H =      0.11146
charge of   27H =      0.11804
charge of   28H =      0.08602
charge of   29H =      0.07507
charge of   30H =      0.09379
charge of   31H =      0.07171
charge of   32H =      0.09215
charge of   33H =      0.08821
charge of   34H =      0.10147
charge of   35H =      0.11868
Dipole moment(X, Y, Z, Debye):  0.44053, -0.14073,  0.25655
nelec by numeric integration = 146.00000359814672
    CPU time for vxc     37.40 sec, wall time     15.64 sec
E1 = -4055.8914926047128  Ecoul = 1872.895210668917  Exc = -124.49172151531386
nelec by numeric integration = 146.00000359814672
    CPU time for vxc     37.96 sec, wall time     15.71 sec
E1 = -4055.8914926047128  Ecoul = 1872.8952106689164  Exc = -124.49172151531384
