System: uname_result(system='Linux', node='cosmopc18', release='5.15.0-97-generic', version='#107-Ubuntu SMP Wed Feb 7 13:26:48 UTC 2024', machine='x86_64')  Threads 4
Python 3.11.8 (main, Feb 26 2024, 21:39:34) [GCC 11.2.0]
numpy 1.26.4  scipy 1.11.4
Date: Tue Apr  9 12:26:28 2024
PySCF version 2.3.0
PySCF path  /home/saade/miniconda3/envs/tutorial/lib/python3.11/site-packages/pyscf

[ENV] PYSCFAD_BACKEND torch
[CONFIG] conf_file None
[INPUT] verbose = 5
[INPUT] max_memory = 4000 
[INPUT] num. atoms = 36
[INPUT] num. electrons = 146
[INPUT] charge = 0
[INPUT] spin (= nelec alpha-beta = 2S) = 0
[INPUT] symmetry False subgroup None
[INPUT] Mole.unit = angstrom
[INPUT] Symbol           X                Y                Z      unit          X                Y                Z       unit  Magmom
[INPUT]  1 C     -0.061945000000   3.639370000000   0.748152000000 AA   -0.117059084786   6.877412565958   1.413802379546 Bohr   0.0
[INPUT]  2 C      0.025904000000   3.703223000000  -0.787402000000 AA    0.048951465531   6.998077248190  -1.487974129935 Bohr   0.0
[INPUT]  3 C      0.126393000000   4.996298000000   1.378153000000 AA    0.238848154062   9.441634856712   2.604331727748 Bohr   0.0
[INPUT]  4 C      0.068292000000   2.344447000000   1.426634000000 AA    0.129053176499   4.430362743558   2.695947539993 Bohr   0.0
[INPUT]  5 C     -0.047171000000   4.877293000000  -1.258006000000 AA   -0.089140271022   9.216747999258  -2.377286803060 Bohr   0.0
[INPUT]  6 C      0.095555000000   2.495657000000  -1.330921000000 AA    0.180572779833   4.716108230854  -2.515076183432 Bohr   0.0
[INPUT]  7 C     -0.090188000000   6.060917000000  -0.834543000000 AA   -0.170430619722  11.453473193720  -1.577057709173 Bohr   0.0
[INPUT]  8 C      0.109854000000   6.072868000000   0.805523000000 AA    0.207593973688  11.476057310635   1.522217857038 Bohr   0.0
[INPUT]  9 C     -0.088277000000   1.225248000000   0.683298000000 AA   -0.166819353098   2.315383154671   1.291246081463 Bohr   0.0
[INPUT] 10 C     -0.051055000000   1.176985000000  -0.534939000000 AA   -0.096479967290   2.224179302721  -1.010888203349 Bohr   0.0
[INPUT] 11 C      0.014355000000   0.022868000000   1.432154000000 AA    0.027127018518   0.043214257017   2.706378828200 Bohr   0.0
[INPUT] 12 C     -0.007600000000  -0.051449000000  -1.388621000000 AA   -0.014361918547  -0.097224519383  -2.624113380820 Bohr   0.0
[INPUT] 13 C      0.146298000000  -1.260493000000   0.728802000000 AA    0.276463152572  -2.381986551931   1.377236179035 Bohr   0.0
[INPUT] 14 C      0.110416000000  -1.206288000000  -0.810310000000 AA    0.208655999770  -2.279553947349  -1.531263975996 Bohr   0.0
[INPUT] 15 C     -0.274696000000  -2.499201000000   1.625901000000 AA   -0.519100207514  -4.722805420239   3.072507595656 Bohr   0.0
[INPUT] 16 C     -0.195224000000  -2.414127000000  -1.524050000000 AA   -0.368919892942  -4.562038859918  -2.880037100143 Bohr   0.0
[INPUT] 17 C      0.151879000000  -3.567990000000   0.802575000000 AA    0.287009714073  -6.742523915187   1.516646944423 Bohr   0.0
[INPUT] 18 C      0.055893000000  -3.542106000000  -0.630816000000 AA    0.105622462280  -6.693610244179  -1.192069474994 Bohr   0.0
[INPUT] 19 C     -0.087739000000  -4.866439000000   1.366819000000 AA   -0.165802680443  -9.196236911902   2.582913571852 Bohr   0.0
[INPUT] 20 C     -0.071365000000  -4.951810000000  -1.586938000000 AA   -0.134860304880  -9.357564720883  -2.998878196665 Bohr   0.0
[INPUT] 21 C      0.099934000000  -5.920603000000   0.748423000000 AA    0.188847890532 -11.188318162278   1.414314495325 Bohr   0.0
[INPUT] 22 C      0.042620000000  -6.229763000000  -0.621656000000 AA    0.080540127429 -11.772545890949  -1.174759583693 Bohr   0.0
[INPUT] 23 H      0.075276000000   4.987707000000   2.490017000000 AA    0.142251023753   9.425400219576   4.705450175511 Bohr   0.0
[INPUT] 24 H      0.031799000000   2.431546000000   2.666907000000 AA    0.060091401035   4.594955999282   5.039723829685 Bohr   0.0
[INPUT] 25 H      0.119010000000   4.808227000000  -2.418509000000 AA    0.224896306084   9.086232174739  -4.570319639796 Bohr   0.0
[INPUT] 26 H     -0.135801000000   2.391861000000  -2.639772000000 AA   -0.256626697442   4.519962218028  -4.988446111295 Bohr   0.0
[INPUT] 27 H     -0.006621000000   6.835989000000  -1.185019000000 AA   -0.012511876671  12.918147000539  -2.239361362406 Bohr   0.0
[INPUT] 28 H      0.046735000000   6.932727000000   1.207844000000 AA    0.088316350432  13.100955326378   2.282494361199 Bohr   0.0
[INPUT] 29 H     -0.105387000000  -0.019675000000   2.356944000000 AA   -0.199152567090  -0.037180361501   4.453978650937 Bohr   0.0
[INPUT] 30 H      0.061564000000   0.017832000000  -2.491259000000 AA    0.116339099133   0.033697596253  -4.707797215358 Bohr   0.0
[INPUT] 31 H     -0.034140000000  -2.453626000000   2.352476000000 AA   -0.064515249893  -4.636681152112   4.445535354612 Bohr   0.0
[INPUT] 32 H     -0.082973000000  -2.424787000000  -2.579876000000 AA   -0.156796245734  -4.582183340406  -4.875259075338 Bohr   0.0
[INPUT] 33 H     -0.130196000000  -4.806738000000   2.382254000000 AA   -0.246034782514  -9.083418372540   4.501807619150 Bohr   0.0
[INPUT] 34 H     -0.024958000000  -5.027663000000  -2.565188000000 AA   -0.047163784617  -9.500906116609  -4.847502778021 Bohr   0.0
[INPUT] 35 H      0.007058000000  -6.850955000000   1.170474000000 AA    0.013337686987 -12.946428641720   2.211875295924 Bohr   0.0
[INPUT] 36 H     -0.039245000000  -7.039247000000  -1.238600000000 AA   -0.074162301759 -13.302248953166  -2.340614777886 Bohr   0.0
[INPUT] ---------------- BASIS SET ---------------- 
[INPUT] l, kappa, [nprim/nctr], expnt,             c_1 c_2 ...
[INPUT] H
[INPUT] 0    0    [3    /1   ]  3.42525091        0.15432897
                                0.62391373        0.53532814
                                0.1688554         0.44463454
[INPUT] C
[INPUT] 0    0    [3    /1   ]  71.616837         0.15432897
                                13.045096         0.53532814
                                3.5305122         0.44463454
[INPUT] 0    0    [3    /1   ]  2.9412494         -0.09996723
                                0.6834831         0.39951283
                                0.2222899         0.70011547
[INPUT] 1    0    [3    /1   ]  2.9412494         0.15591627
                                0.6834831         0.60768372
                                0.2222899         0.39195739

nuclear repulsion = 1496.17532396689
number of shells = 80
number of NR pGTOs = 372
number of NR cGTOs = 124
basis = sto3g
ecp = {}
CPU time:     24122.81
atom C rad-grids = 99, ang-grids = [ 50  50  50  50  50  50  50  50  50  50  50  50  50  50  50  50  50  50
  50  50  50  50  50  50  50  50  50  50  50  50  50  86  86  86  86  86
  86  86  86  86  86  86  86 434 434 434 434 434 434 434 434 434 590 590
 590 590 590 590 590 590 590 590 590 590 590 590 590 590 590 590 590 590
 590 590 590 590 590 590 590 434 434 434 434 434 434 434 434 434 434 434
 434 434 434 434 434 434 434 434 434]
atom H rad-grids = 99, ang-grids = [ 50  50  50  50  50  50  50  50  50  50  50  50  50  50  50  50  50  50
  50  50  50  50  50  50  50  50  50  50  86  86  86  86  86  86  86 434
 434 434 434 434 434 434 434 590 590 590 590 590 590 590 590 590 590 590
 590 590 590 590 590 590 590 590 590 590 590 590 590 590 590 434 434 434
 434 434 434 434 434 434 434 434 434 434 434 434 434 434 434 434 434 434
 434 434 434 434 434 434 434 434 434]
tot_boxes 5270, boxes in each direction [ 8 29 15]
Padding 0 grids
tot grids = 1157832


******** <class 'pyscf.dft.rks.RKS'> ********
method = RKS
initial guess = minao
damping factor = 0
level_shift factor = 0
DIIS = <class 'pyscf.scf.diis.CDIIS'>
diis_start_cycle = 1
diis_space = 8
SCF conv_tol = 1e-10
SCF conv_tol_grad = None
SCF max_cycles = 50
direct_scf = True
direct_scf_tol = 1e-13
chkfile to save SCF result = /home/saade/mlelec/tutorials/tmpuwkqz6i6
max_memory 4000 MB (current use 637 MB)
XC library pyscf.dft.libxc version 6.1.0
    S. Lehtola, C. Steigemann, M. J.T. Oliveira, and M. A.L. Marques.,  SoftwareX 7, 1–5 (2018)
XC functionals = b3lypg
    P. J. Stephens, F. J. Devlin, C. F. Chabalowski, and M. J. Frisch.,  J. Phys. Chem. 98, 11623 (1994)
radial grids: 
    Treutler-Ahlrichs [JCP 102, 346 (1995); DOI:10.1063/1.469408] (M4) radial grids
    
becke partition: Becke, JCP 88, 2547 (1988); DOI:10.1063/1.454033
pruning grids: <function nwchem_prune at 0x7f9db5616ca0>
grids dens level: 3
symmetrized grids: False
atomic radii adjust function: <function treutler_atomic_radii_adjust at 0x7f9db5617380>
User specified grid scheme (99, 590)
small_rho_cutoff = 1e-07
Set gradient conv threshold to 1e-05
Initial guess from minao.
nelec by numeric integration = 145.26502580224474
    CPU time for vxc     37.26 sec, wall time     15.59 sec
E1 = -4091.806423136537  Ecoul = 1880.4071583836298  Exc = -126.13128988161546
init E= -841.35523066763
cond(S) = 21.96524535010868
    CPU time for initialize scf     46.85 sec, wall time     17.91 sec
  HOMO = -0.215697569878525  LUMO = -0.154328638093639
  mo_energy =
[-10.14711463 -10.1402275  -10.12843184 -10.12298622 -10.12193581
 -10.12163196 -10.11949362 -10.1192888  -10.11191982 -10.11187362
 -10.11080988 -10.10920244 -10.10774438 -10.0986872  -10.09352405
 -10.0919737  -10.08614717 -10.07922423 -10.07780167 -10.07749275
 -10.07539405 -10.06542986  -1.10104488  -1.06264318  -1.04547798
  -0.99263113  -0.95403094  -0.94701511  -0.91390393  -0.88411825
  -0.86282372  -0.83916156  -0.81093512  -0.76627294  -0.73429245
  -0.72788797  -0.70918945  -0.68631765  -0.65442258  -0.64075439
  -0.60945694  -0.59378336  -0.58664935  -0.56251285  -0.54805281
  -0.54489694  -0.53342153  -0.51600914  -0.49866432  -0.49144755
  -0.4821753   -0.47860938  -0.47147393  -0.45835825  -0.4395036
  -0.43763273  -0.43165286  -0.41346193  -0.40686144  -0.40108021
  -0.38529362  -0.37969276  -0.36320552  -0.36046482  -0.35384557
  -0.33633468  -0.31258076  -0.30814044  -0.29750165  -0.2803384
  -0.27274634  -0.24533459  -0.21569757  -0.15432864  -0.1015085
  -0.07867042  -0.07080712  -0.04861358  -0.02825608   0.02711939
   0.03639455   0.08993296   0.10876027   0.11413253   0.12095995
   0.12872303   0.14817451   0.16972978   0.17251562   0.20648827
   0.21383956   0.23073448   0.23997428   0.24517437   0.25847835
   0.27083394   0.28821776   0.297606     0.31815392   0.34545388
   0.36631281   0.37983156   0.39124503   0.41870698   0.43244257
   0.44042173   0.45538134   0.47061713   0.48904873   0.50946815
   0.52410152   0.52999187   0.5460662    0.58679443   0.59377839
   0.6305345    0.64599878   0.66129779   0.70564252   0.74670368
   0.77675025   0.81996281   0.83615183   0.84594581]
nelec by numeric integration = 146.00000328440643
    CPU time for vxc     38.15 sec, wall time     15.78 sec
E1 = -4106.174241077708  Ecoul = 1899.271505241648  Exc = -124.79540833327133
cycle= 1 E= -835.522820202439  delta_E= 5.83  |g|= 0.338  |ddm|= 9.25
    CPU time for cycle= 1     38.44 sec, wall time     15.83 sec
  HOMO = -0.100841973968595  LUMO = -0.00425986983542502
  mo_energy =
[-1.00730086e+01 -1.00714627e+01 -1.00517354e+01 -1.00459033e+01
 -1.00285989e+01 -1.00270143e+01 -1.00132248e+01 -1.00124860e+01
 -1.00060721e+01 -9.99466985e+00 -9.99169715e+00 -9.98705496e+00
 -9.98115044e+00 -9.97913936e+00 -9.97308152e+00 -9.97083242e+00
 -9.96882210e+00 -9.96764581e+00 -9.96499963e+00 -9.93436785e+00
 -9.89550146e+00 -9.87924805e+00 -8.38413564e-01 -8.20231751e-01
 -7.98806770e-01 -7.77988801e-01 -7.35976697e-01 -7.34604737e-01
 -7.24634140e-01 -7.00010123e-01 -6.76903825e-01 -6.71642779e-01
 -6.37948853e-01 -6.18515717e-01 -6.02159613e-01 -5.83681140e-01
 -5.69278055e-01 -5.56466095e-01 -5.30550587e-01 -5.09228430e-01
 -4.85327249e-01 -4.79039743e-01 -4.74196213e-01 -4.66275383e-01
 -4.42580053e-01 -4.30250237e-01 -4.27078956e-01 -4.05507579e-01
 -3.90055594e-01 -3.82495070e-01 -3.75226389e-01 -3.72028007e-01
 -3.56985906e-01 -3.53821129e-01 -3.48843425e-01 -3.33325013e-01
 -3.15711890e-01 -3.10953275e-01 -3.05070512e-01 -3.00886235e-01
 -2.87352488e-01 -2.76657828e-01 -2.69173325e-01 -2.59110010e-01
 -2.37449052e-01 -2.24216807e-01 -2.12538032e-01 -2.11361550e-01
 -2.05843126e-01 -1.73996434e-01 -1.59808224e-01 -1.44850746e-01
 -1.00841974e-01 -4.25986984e-03  4.17114349e-02  6.07712347e-02
  6.91613053e-02  1.08605050e-01  1.24158252e-01  1.81185508e-01
  1.90987745e-01  2.14709194e-01  2.41194729e-01  2.49535112e-01
  2.69527703e-01  2.88953479e-01  3.04645379e-01  3.23648322e-01
  3.35029763e-01  3.35969567e-01  3.47335180e-01  3.64762444e-01
  3.75625603e-01  3.85428106e-01  3.94753693e-01  4.17346510e-01
  4.28970161e-01  4.53556422e-01  4.66348253e-01  4.90958173e-01
  5.04353976e-01  5.16154753e-01  5.39763993e-01  5.43380247e-01
  5.69813850e-01  5.89526850e-01  6.02617961e-01  6.21187159e-01
  6.42904059e-01  6.47249089e-01  6.63102696e-01  6.77233779e-01
  7.19063752e-01  7.37599079e-01  7.44642226e-01  7.73737529e-01
  7.85113290e-01  8.39874094e-01  8.77368087e-01  9.27328319e-01
  9.46597393e-01  1.00123218e+00  1.01555420e+00  1.03817661e+00]
nelec by numeric integration = 146.00000328031075
    CPU time for vxc     37.94 sec, wall time     15.78 sec
E1 = -4102.722720923116  Ecoul = 1895.8375327038962  Exc = -124.67370946233034
cycle= 2 E= -835.383573714658  delta_E= 0.139  |g|= 0.694  |ddm|= 1.64
    CPU time for cycle= 2     38.62 sec, wall time     15.88 sec
  HOMO = -0.109569709335001  LUMO = -0.0141908835538673
  mo_energy =
[-10.03375991 -10.02833257 -10.02245797 -10.02222171 -10.01683263
 -10.01100556 -10.00977285 -10.00792512 -10.00715919 -10.0047291
  -9.99950198  -9.99941591  -9.99934982  -9.99874793  -9.99873573
  -9.996753    -9.99337583  -9.98891699  -9.98286302  -9.97851825
  -9.97837731  -9.96310926  -0.84830282  -0.82547512  -0.81219562
  -0.77693371  -0.75325685  -0.74567061  -0.72148326  -0.70171048
  -0.69063571  -0.67311915  -0.65453107  -0.61781142  -0.59572945
  -0.59328241  -0.57808124  -0.55748428  -0.53407131  -0.51533233
  -0.49526161  -0.48225077  -0.48092888  -0.4608199   -0.44468546
  -0.44256261  -0.42774304  -0.41539545  -0.40085644  -0.38951401
  -0.38352914  -0.37467135  -0.36429251  -0.36026441  -0.34561974
  -0.3336318   -0.32593135  -0.31982613  -0.31002649  -0.30496592
  -0.29037164  -0.28710768  -0.26655046  -0.26345273  -0.2480717
  -0.23498095  -0.21875359  -0.21709888  -0.20138725  -0.17856372
  -0.16964122  -0.14700482  -0.10956971  -0.01419088   0.04141124
   0.0614069    0.06638309   0.09848063   0.11195042   0.18031513
   0.18672199   0.2332239    0.24598823   0.25938661   0.26322223
   0.27268014   0.29209965   0.31862067   0.32355664   0.33590996
   0.35426988   0.36800285   0.3862056    0.38772354   0.39742487
   0.41901953   0.43309756   0.44900645   0.4614845    0.4818808
   0.50323742   0.52232944   0.52902477   0.55810352   0.5724259
   0.57643405   0.59702611   0.61745563   0.63320658   0.64631291
   0.65054617   0.66942364   0.69274109   0.7219667    0.73844218
   0.76862168   0.79180984   0.81431917   0.86492733   0.89921223
   0.93109249   0.95822284   0.98258909   1.00033936]
nelec by numeric integration = 146.0000032880692
    CPU time for vxc     37.54 sec, wall time     15.63 sec
E1 = -4103.009994953101  Ecoul = 1895.9586601563335  Exc = -124.67621994203368
cycle= 3 E= -835.552230771909  delta_E= -0.169  |g|= 0.215  |ddm|= 1.41
    CPU time for cycle= 3     38.06 sec, wall time     15.71 sec
  HOMO = -0.116985141678436  LUMO = -0.023820688086573
  mo_energy =
[-10.0382071  -10.03564828 -10.02895464 -10.02755068 -10.02661065
 -10.02411558 -10.02250951 -10.02179139 -10.01641394 -10.01420133
 -10.01349341 -10.01259353 -10.0105868  -10.0094608  -10.00906463
 -10.0085281  -10.00845134 -10.00534138 -10.003606   -10.002042
  -9.99952575  -9.98542259  -0.86035847  -0.83225384  -0.82021469
  -0.78909425  -0.75925491  -0.75410343  -0.73041995  -0.71244491
  -0.69387795  -0.6786116   -0.65681516  -0.62847749  -0.60406119
  -0.59898519  -0.58410091  -0.56549345  -0.53662979  -0.52325287
  -0.50237212  -0.49041713  -0.48315188  -0.46559434  -0.45145996
  -0.44984881  -0.43673335  -0.42118198  -0.40739048  -0.39833938
  -0.38973355  -0.38408492  -0.37399592  -0.36835612  -0.35206925
  -0.3406076   -0.33382918  -0.32562392  -0.31738932  -0.31283741
  -0.29877803  -0.29259178  -0.27473292  -0.2716798   -0.2597568
  -0.2401855   -0.22659647  -0.22372299  -0.20897456  -0.1897608
  -0.17603407  -0.15460311  -0.11698514  -0.02382069   0.03206983
   0.0547354    0.05960785   0.09202214   0.10625194   0.16781536
   0.17399155   0.23066024   0.23906068   0.2498546    0.25551912
   0.26398012   0.28495455   0.31040177   0.31479897   0.34004086
   0.34475025   0.36174825   0.37863175   0.3820933    0.39027885
   0.4070312    0.42250041   0.43620028   0.45293683   0.4825409
   0.50046459   0.51577638   0.52062389   0.55192506   0.56798049
   0.56941511   0.59092481   0.60963967   0.62769482   0.64233395
   0.64569805   0.66088812   0.68637164   0.71386216   0.72634366
   0.7647154    0.77865173   0.80184852   0.85028003   0.89537002
   0.91499138   0.96162794   0.97392376   0.98628924]
nelec by numeric integration = 146.0000032914882
    CPU time for vxc     37.70 sec, wall time     15.67 sec
E1 = -4103.713998357506  Ecoul = 1896.6645605781437  Exc = -124.69281927263877
cycle= 4 E= -835.566933085109  delta_E= -0.0147  |g|= 0.0918  |ddm|= 0.442
    CPU time for cycle= 4     38.21 sec, wall time     15.75 sec
  HOMO = -0.118463977658856  LUMO = -0.0245840957201332
  mo_energy =
[-10.03953369 -10.03432025 -10.03327769 -10.0299028  -10.02899907
 -10.02578679 -10.02195078 -10.02174636 -10.02171085 -10.02035762
 -10.01593874 -10.01534369 -10.01517773 -10.01400749 -10.01334046
 -10.01266407 -10.01139766 -10.00989125 -10.00613587 -10.00390191
  -9.99650653  -9.99513917  -0.85852418  -0.83489796  -0.82412814
  -0.79072716  -0.75997489  -0.75714238  -0.73181549  -0.71312794
  -0.69666594  -0.67998836  -0.65843753  -0.62986355  -0.60414076
  -0.60042617  -0.58550924  -0.56586244  -0.53911634  -0.52371678
  -0.50269642  -0.49094085  -0.48637103  -0.46711081  -0.45295097
  -0.44996094  -0.43724581  -0.42306121  -0.40866082  -0.39892186
  -0.39192762  -0.38505078  -0.37343969  -0.36729882  -0.35564608
  -0.34396175  -0.33558287  -0.32572257  -0.31930307  -0.31604636
  -0.30133626  -0.29425341  -0.27685699  -0.27337584  -0.26036552
  -0.24414616  -0.22904705  -0.22605702  -0.21180196  -0.19096279
  -0.17881855  -0.15662195  -0.11846398  -0.0245841    0.03161665
   0.05260451   0.05618506   0.09021881   0.10110792   0.16709033
   0.17247985   0.22454518   0.2395597    0.24734617   0.25285402
   0.2648884    0.28561934   0.31025655   0.31300139   0.33429032
   0.34538149   0.36145926   0.37622288   0.37821061   0.38670362
   0.4078867    0.42281451   0.43723669   0.45320221   0.47920544
   0.49807363   0.51355836   0.51918409   0.54995134   0.56586272
   0.56869124   0.58852097   0.60765278   0.62699384   0.63907263
   0.64185872   0.65860989   0.6860957    0.71354147   0.7269794
   0.76088638   0.77617039   0.80347095   0.84911426   0.88830336
   0.91643802   0.96234012   0.97312813   0.98643043]
nelec by numeric integration = 146.00000329123228
    CPU time for vxc     38.41 sec, wall time     15.86 sec
E1 = -4103.891450626857  Ecoul = 1896.842999719428  Exc = -124.69624241780092
cycle= 5 E= -835.569369358337  delta_E= -0.00244  |g|= 0.0312  |ddm|= 0.147
    CPU time for cycle= 5     38.81 sec, wall time     15.92 sec
  HOMO = -0.118907853356735  LUMO = -0.0241332694384738
  mo_energy =
[-10.03661952 -10.03484105 -10.03058099 -10.03015877 -10.02525381
 -10.02293838 -10.02098808 -10.01839722 -10.01781706 -10.01726326
 -10.01596951 -10.01579409 -10.01332371 -10.01231142 -10.0122673
 -10.01122279 -10.00845642 -10.00710236 -10.00281389 -10.00277597
 -10.00168252 -10.00064673  -0.85838871  -0.83281712  -0.82213117
  -0.78876795  -0.75901212  -0.75545966  -0.73078526  -0.71259049
  -0.69591952  -0.67991507  -0.65834694  -0.62882925  -0.60328207
  -0.60024061  -0.58500736  -0.56555913  -0.5382281   -0.52262827
  -0.50184361  -0.48962936  -0.48558352  -0.46668048  -0.45165155
  -0.4495132   -0.43669777  -0.42182391  -0.40786835  -0.39811589
  -0.39134823  -0.38417702  -0.3730299   -0.36738961  -0.35458978
  -0.3423317   -0.33457257  -0.32583043  -0.31838137  -0.31477523
  -0.30020405  -0.29402807  -0.27542655  -0.27373474  -0.25893168
  -0.24345462  -0.22874742  -0.22514805  -0.21097632  -0.19047123
  -0.17812667  -0.15681198  -0.11890785  -0.02413327   0.03191522
   0.05335749   0.05630763   0.09046104   0.10261753   0.16874993
   0.1737898    0.22623909   0.23985544   0.24729281   0.25362387
   0.26501169   0.28585517   0.31075991   0.31386208   0.33572454
   0.34586118   0.36167034   0.37661669   0.37874572   0.38742593
   0.40878139   0.42337701   0.43799396   0.45355935   0.48019481
   0.49892394   0.51419859   0.51979181   0.55066373   0.56622715
   0.56904003   0.58937151   0.60935794   0.62729559   0.64021717
   0.64315296   0.65922362   0.68563237   0.71490528   0.72820966
   0.76286328   0.77764479   0.8033792    0.85146629   0.89263842
   0.91822389   0.96224706   0.97346042   0.9878913 ]
nelec by numeric integration = 146.0000032939153
    CPU time for vxc     38.46 sec, wall time     15.81 sec
E1 = -4103.790818616273  Ecoul = 1896.7393220203048  Exc = -124.69344564477298
cycle= 6 E= -835.569618273849  delta_E= -0.000249  |g|= 0.0151  |ddm|= 0.0581
    CPU time for cycle= 6     38.94 sec, wall time     15.89 sec
  HOMO = -0.118485718572796  LUMO = -0.0235371287913324
  mo_energy =
[-10.0358295  -10.03407765 -10.03073601 -10.02809584 -10.02564542
 -10.02402002 -10.02140585 -10.01844349 -10.01703897 -10.01598396
 -10.01588041 -10.01581566 -10.01405849 -10.01254321 -10.01108408
 -10.01073274 -10.00868947 -10.00792768 -10.00282551 -10.00254605
  -9.99837346  -9.99759725  -0.85808752  -0.83268515  -0.82202876
  -0.78882203  -0.75878787  -0.75542652  -0.73042372  -0.71214756
  -0.69547427  -0.67937914  -0.65786002  -0.62861679  -0.60312999
  -0.5996732   -0.58457569  -0.56517213  -0.53803518  -0.52266802
  -0.50175296  -0.48966276  -0.48513485  -0.46633252  -0.4515216
  -0.44933578  -0.4365094   -0.42163693  -0.40781307  -0.39802497
  -0.39105739  -0.38399134  -0.37289422  -0.36727476  -0.35418683
  -0.34212389  -0.33436578  -0.32561528  -0.31807264  -0.31455967
  -0.30002159  -0.29367435  -0.27534437  -0.27302804  -0.25888868
  -0.24298019  -0.22802279  -0.22516022  -0.21050247  -0.1900646
  -0.17772592  -0.15618326  -0.11848572  -0.02353713   0.03234586
   0.05368616   0.05722577   0.09111985   0.10295616   0.16876027
   0.17389669   0.22674458   0.2396554    0.24866567   0.25385627
   0.26520076   0.28608263   0.31113618   0.3140526    0.33588544
   0.3458771    0.36191034   0.37747019   0.37915633   0.38803705
   0.40865483   0.42353499   0.43792662   0.4537036    0.48037026
   0.4990304    0.5147624    0.52016973   0.55111596   0.56689021
   0.56935704   0.58984688   0.60934547   0.6277279    0.64075849
   0.64329496   0.65956392   0.68641736   0.71496604   0.72811149
   0.76282704   0.77767192   0.80378582   0.85152214   0.89223042
   0.91796572   0.96260718   0.97378799   0.98797995]
nelec by numeric integration = 146.00000329367174
    CPU time for vxc     38.38 sec, wall time     15.79 sec
E1 = -4103.769403426159  Ecoul = 1896.7173700498727  Exc = -124.69298654529337
cycle= 7 E= -835.569695954688  delta_E= -7.77e-05  |g|= 0.00467  |ddm|= 0.0264
    CPU time for cycle= 7     38.87 sec, wall time     15.87 sec
  HOMO = -0.118389230220485  LUMO = -0.0233961099838054
  mo_energy =
[-10.03590653 -10.03416481 -10.03045236 -10.02857271 -10.02573845
 -10.02421383 -10.02065509 -10.01874212 -10.01716282 -10.01608338
 -10.01602083 -10.01522321 -10.01346385 -10.01220848 -10.01101383
 -10.01095097 -10.00898406 -10.0081102  -10.0029804  -10.00131496
  -9.99843451  -9.99771145  -0.85800923  -0.83274075  -0.82210234
  -0.78874771  -0.75876296  -0.7554507   -0.73044738  -0.71210264
  -0.69545872  -0.67926884  -0.65782162  -0.62855447  -0.60313489
  -0.59966642  -0.58456144  -0.56512986  -0.5379667   -0.52267974
  -0.50175866  -0.4896515   -0.48516869  -0.46627507  -0.4514888
  -0.44932595  -0.43642879  -0.42165422  -0.40773502  -0.39794953
  -0.39100637  -0.38399603  -0.37284676  -0.36722209  -0.35415453
  -0.34213706  -0.33436036  -0.32555646  -0.31806975  -0.31452368
  -0.29996709  -0.29362991  -0.27526451  -0.27296636  -0.25892006
  -0.24291233  -0.22795817  -0.2251557   -0.21051724  -0.19003162
  -0.17768285  -0.15609429  -0.11838923  -0.02339611   0.03242339
   0.05374903   0.05728373   0.09111877   0.10299985   0.16873367
   0.17396813   0.22671648   0.23978779   0.24856132   0.25387637
   0.26523525   0.28606207   0.3111973    0.31406671   0.3360675
   0.3459357    0.36198882   0.37760202   0.37926676   0.38814746
   0.40875636   0.42361915   0.43800606   0.45379098   0.48048346
   0.49913019   0.51478239   0.52021176   0.55111583   0.56687844
   0.56939923   0.58981236   0.6093047    0.627713     0.64080926
   0.64333405   0.65962849   0.68639156   0.71487503   0.7281387
   0.76298363   0.77778707   0.80383648   0.85138989   0.89210828
   0.91789294   0.96259247   0.9737374    0.98790381]
nelec by numeric integration = 146.0000032932283
    CPU time for vxc     38.26 sec, wall time     15.83 sec
E1 = -4103.771793221473  Ecoul = 1896.7196870864386  Exc = -124.69292080964267
cycle= 8 E= -835.569702977784  delta_E= -7.02e-06  |g|= 0.00117  |ddm|= 0.00658
    CPU time for cycle= 8     38.72 sec, wall time     15.90 sec
  HOMO = -0.118388720391542  LUMO = -0.0233555768955641
  mo_energy =
[-10.03572638 -10.03428127 -10.03048265 -10.02846364 -10.02568046
 -10.02411117 -10.02056116 -10.01875703 -10.01714116 -10.01626474
 -10.01596222 -10.01545359 -10.01339475 -10.01221568 -10.01109164
 -10.01092889 -10.0088457  -10.00826025 -10.00297881 -10.00144973
  -9.99852206  -9.99760521  -0.85804393  -0.83271176  -0.82209556
  -0.78874024  -0.75876473  -0.75546241  -0.73044913  -0.71208691
  -0.69547414  -0.67928325  -0.65783379  -0.62853912  -0.60313705
  -0.59965828  -0.584572    -0.56512664  -0.53796585  -0.52268632
  -0.50177551  -0.48965639  -0.48517555  -0.46624749  -0.45149122
  -0.44933728  -0.43642813  -0.42167671  -0.40774106  -0.39793308
  -0.39101362  -0.38398549  -0.37286029  -0.3672384   -0.35411992
  -0.34210707  -0.33436478  -0.32557122  -0.31806928  -0.31450825
  -0.2999671   -0.29362623  -0.27525012  -0.27298093  -0.25895378
  -0.24289592  -0.22793402  -0.2251506   -0.21050375  -0.190027
  -0.17768557  -0.15610761  -0.11838872  -0.02335558   0.03239702
   0.05374533   0.05731148   0.09111668   0.10302841   0.16870083
   0.17397533   0.22673487   0.23979601   0.24861039   0.25389458
   0.26522247   0.28603991   0.31120785   0.31406584   0.33601728
   0.34592428   0.36199797   0.37761275   0.379285     0.38818047
   0.40875774   0.42362586   0.43800216   0.45377254   0.48045937
   0.49909849   0.51480155   0.52023249   0.55113616   0.56689868
   0.56938029   0.58984671   0.60933254   0.62769907   0.64085996
   0.64331414   0.65965587   0.68635395   0.71484003   0.72811761
   0.76295962   0.77779877   0.80380124   0.85135152   0.89209775
   0.91789522   0.96259906   0.97373929   0.98787949]
nelec by numeric integration = 146.00000329336353
    CPU time for vxc     38.22 sec, wall time     15.81 sec
E1 = -4103.772485408312  Ecoul = 1896.7204395856086  Exc = -124.69298150807474
cycle= 9 E= -835.569703363885  delta_E= -3.86e-07  |g|= 0.000565  |ddm|= 0.00175
    CPU time for cycle= 9     38.70 sec, wall time     15.89 sec
  HOMO = -0.118402305588852  LUMO = -0.0233716935703948
  mo_energy =
[-10.03581097 -10.03422278 -10.03044148 -10.02848746 -10.02566038
 -10.02409399 -10.02055547 -10.01875254 -10.01719764 -10.01620113
 -10.01608228 -10.01537907 -10.01340601 -10.01223516 -10.01108278
 -10.01096171 -10.00890116 -10.00825058 -10.00299955 -10.00146122
  -9.99849247  -9.99762367  -0.85802191  -0.83273052  -0.8221073
  -0.78873553  -0.75877831  -0.75547395  -0.7304504   -0.71208827
  -0.69547939  -0.67928361  -0.65784378  -0.62854434  -0.60313927
  -0.599667    -0.58457461  -0.56512465  -0.53797736  -0.52268561
  -0.50177727  -0.4896589   -0.48518892  -0.46626582  -0.45149271
  -0.44933197  -0.43642497  -0.42167716  -0.40773817  -0.39793411
  -0.39101459  -0.38398839  -0.37284849  -0.36721833  -0.35413224
  -0.34212094  -0.33436765  -0.32556062  -0.31807451  -0.31451229
  -0.29996552  -0.29362198  -0.27525004  -0.272981    -0.25894882
  -0.24291663  -0.22795242  -0.22514935  -0.21050937  -0.190028
  -0.17768649  -0.15611068  -0.11840231  -0.02337169   0.03240599
   0.05374329   0.05729494   0.09111441   0.10301366   0.16870555
   0.17398111   0.22671613   0.2398204    0.24859609   0.2538978
   0.2652362    0.28604792   0.31120409   0.31406422   0.33600978
   0.34593881   0.36200161   0.37760309   0.37928359   0.38816526
   0.40876648   0.4236315    0.43801134   0.45378055   0.48045048
   0.49909661   0.51479081   0.52022662   0.55112772   0.56688082
   0.56938401   0.58982898   0.60931888   0.62769996   0.64083857
   0.64330787   0.65965232   0.68636236   0.71483413   0.72812865
   0.76295683   0.77780149   0.80382016   0.85134669   0.89208969
   0.91790379   0.96256635   0.97371012   0.98787944]
nelec by numeric integration = 146.00000329334014
    CPU time for vxc     38.13 sec, wall time     15.79 sec
E1 = -4103.772340707839  Ecoul = 1896.7203108771428  Exc = -124.69299761163128
cycle= 10 E= -835.569703475435  delta_E= -1.12e-07  |g|= 0.000197  |ddm|= 0.000885
    CPU time for cycle= 10     38.60 sec, wall time     15.86 sec
  HOMO = -0.118413356414339  LUMO = -0.0233830154442007
  mo_energy =
[-10.03583501 -10.03425645 -10.03048099 -10.02850869 -10.02567625
 -10.02412159 -10.02057018 -10.01875398 -10.01719154 -10.01621668
 -10.0160782  -10.01536745 -10.01340224 -10.01221826 -10.01110166
 -10.01093324 -10.00894459 -10.00821707 -10.00297587 -10.00148856
  -9.99857286  -9.99761763  -0.85804088  -0.83273757  -0.82211773
  -0.78874758  -0.75878338  -0.75547153  -0.73045324  -0.71209665
  -0.6954928   -0.67929133  -0.65785373  -0.62854929  -0.60314365
  -0.59967524  -0.58458064  -0.56513357  -0.53798612  -0.52268176
  -0.50177687  -0.4896606   -0.48519679  -0.46627192  -0.45150101
  -0.44934083  -0.4364322   -0.42168979  -0.40774321  -0.39794295
  -0.39102132  -0.38398818  -0.3728566   -0.36722558  -0.35414268
  -0.34213071  -0.33437584  -0.32556326  -0.31808435  -0.31452206
  -0.2999745   -0.29363193  -0.27526196  -0.2729923   -0.25894039
  -0.24292475  -0.22796062  -0.22514803  -0.21051469  -0.19003352
  -0.17769671  -0.1561176   -0.11841336  -0.02338302   0.03240147
   0.05373698   0.05728743   0.09110104   0.10300271   0.168716
   0.17397035   0.22670133   0.23981772   0.24858892   0.2538923
   0.26522773   0.28604807   0.31119547   0.31406013   0.3359992
   0.34593292   0.36199362   0.37759351   0.37927348   0.38815532
   0.40876481   0.42362716   0.43800893   0.45378192   0.48044186
   0.49909164   0.51478353   0.5202178    0.55111797   0.56687023
   0.56938102   0.58981881   0.60930985   0.62767922   0.64082937
   0.64329774   0.65963333   0.68634434   0.7148484    0.72812871
   0.76294378   0.77778799   0.80380075   0.85136553   0.89206733
   0.91789647   0.96255691   0.97370498   0.98788306]
nelec by numeric integration = 146.00000329338332
    CPU time for vxc     38.72 sec, wall time     15.88 sec
E1 = -4103.773210029133  Ecoul = 1896.7211952099017  Exc = -124.69301263074044
cycle= 11 E= -835.56970348308  delta_E= -7.64e-09  |g|= 0.000136  |ddm|= 0.000437
    CPU time for cycle= 11     39.30 sec, wall time     15.97 sec
  HOMO = -0.118406118255508  LUMO = -0.0233732410941421
  mo_energy =
[-10.03581347 -10.03423934 -10.03046075 -10.02849487 -10.02566545
 -10.02411304 -10.02054225 -10.01874465 -10.01719762 -10.0162195
 -10.01608209 -10.01537646 -10.01339188 -10.01222367 -10.01108243
 -10.01093816 -10.00892391 -10.00822465 -10.00297707 -10.00147401
  -9.99853784  -9.99761495  -0.85802995  -0.83273175  -0.82211083
  -0.78873847  -0.75877936  -0.75547065  -0.73044836  -0.71208859
  -0.69548576  -0.67928546  -0.65784749  -0.62854378  -0.60313956
  -0.59966938  -0.58457524  -0.56512745  -0.53797978  -0.52268174
  -0.50177508  -0.48965628  -0.48519253  -0.46626549  -0.45149501
  -0.44933473  -0.43642629  -0.4216828   -0.40773821  -0.39793719
  -0.39101608  -0.38398557  -0.37285104  -0.36722153  -0.35413401
  -0.34212371  -0.33437053  -0.32556056  -0.31807796  -0.31451632
  -0.2999689   -0.29362792  -0.27525346  -0.27298579  -0.2589412
  -0.2429188   -0.22795406  -0.22514767  -0.21050953  -0.19002784
  -0.17769016  -0.15611236  -0.11840612  -0.02337324   0.0324056
   0.05374218   0.05729381   0.09110862   0.10301098   0.16871477
   0.17397907   0.22670888   0.23981612   0.24859552   0.25389588
   0.26523311   0.28605126   0.31120055   0.31406319   0.33600315
   0.3459361    0.36199931   0.37760059   0.37928214   0.38816409
   0.4087685    0.42363253   0.43801261   0.45378362   0.48044653
   0.49909503   0.51479074   0.52022525   0.55112537   0.5668774
   0.56938493   0.58982657   0.60931615   0.62769026   0.64083834
   0.64330255   0.65964578   0.6863554    0.71484681   0.72813022
   0.76295048   0.77779793   0.80381281   0.85136293   0.89207521
   0.91790205   0.96256162   0.97370876   0.9878859 ]
nelec by numeric integration = 146.00000329336908
    CPU time for vxc     38.17 sec, wall time     15.73 sec
E1 = -4103.772609433792  Ecoul = 1896.7205813839716  Exc = -124.69299940643845
cycle= 12 E= -835.569703489366  delta_E= -6.29e-09  |g|= 3.06e-05  |ddm|= 0.000224
    CPU time for cycle= 12     38.61 sec, wall time     15.81 sec
  HOMO = -0.118404198454307  LUMO = -0.0233712163340007
  mo_energy =
[-10.03581524 -10.0342388  -10.03045524 -10.02849415 -10.02566217
 -10.02410461 -10.02054399 -10.01874211 -10.01719345 -10.01621318
 -10.01607673 -10.01536823 -10.01338773 -10.01222261 -10.01109005
 -10.01094273 -10.00891969 -10.00822659 -10.00297919 -10.00147205
  -9.99853276  -9.9976077   -0.85802782  -0.83272989  -0.8221092
  -0.78873692  -0.75877756  -0.75546919  -0.73044782  -0.71208745
  -0.69548396  -0.67928397  -0.65784656  -0.62854207  -0.60313806
  -0.59966781  -0.58457439  -0.56512568  -0.53797893  -0.52268089
  -0.50177429  -0.48965584  -0.48519109  -0.46626457  -0.45149368
  -0.449334    -0.43642521  -0.42168126  -0.40773782  -0.39793527
  -0.39101505  -0.3839846   -0.37284955  -0.36722103  -0.35413298
  -0.34212186  -0.33436856  -0.32556074  -0.31807617  -0.31451409
  -0.2999672   -0.29362571  -0.27525177  -0.27298404  -0.25894056
  -0.2429166   -0.22795214  -0.22514658  -0.21050865  -0.19002625
  -0.17768842  -0.15611068  -0.1184042   -0.02337122   0.03240702
   0.05374347   0.05729607   0.09111071   0.10301235   0.16871524
   0.17398014   0.22671095   0.23981838   0.24859749   0.25389776
   0.26523364   0.28604994   0.31120287   0.31406536   0.33600485
   0.34593789   0.36200017   0.37760303   0.37928311   0.38816573
   0.40876992   0.42363324   0.43801378   0.45378408   0.48044792
   0.49909582   0.5147918    0.5202266    0.55112669   0.56687931
   0.56938548   0.58982836   0.60931791   0.6276916    0.64084002
   0.64330419   0.65964707   0.68635519   0.71484582   0.72813233
   0.76295278   0.77779978   0.80381384   0.85136191   0.89207865
   0.91790473   0.96256425   0.97371062   0.98788612]
nelec by numeric integration = 146.00000329336746
    CPU time for vxc     38.33 sec, wall time     15.96 sec
E1 = -4103.772464047269  Ecoul = 1896.7204334484647  Exc = -124.69299685762192
cycle= 13 E= -835.569703489534  delta_E= -1.67e-10  |g|= 2.18e-05  |ddm|= 7.04e-05
    CPU time for cycle= 13     38.90 sec, wall time     16.04 sec
  HOMO = -0.118405230762463  LUMO = -0.0233721794386772
  mo_energy =
[-10.03581527 -10.03424003 -10.03045848 -10.02849399 -10.02566286
 -10.02410839 -10.02054392 -10.01874651 -10.01719413 -10.01621306
 -10.01607912 -10.01537308 -10.01338999 -10.01222317 -10.01108822
 -10.01094103 -10.00892153 -10.00822786 -10.00298052 -10.00147071
  -9.99853555  -9.99760992  -0.85802933  -0.83273102  -0.82211033
  -0.78873743  -0.75877868  -0.75547043  -0.73044852  -0.71208823
  -0.69548481  -0.67928456  -0.65784728  -0.62854292  -0.60313919
  -0.59966848  -0.584575    -0.56512645  -0.53797932  -0.52268183
  -0.50177515  -0.48965659  -0.48519157  -0.46626508  -0.45149429
  -0.44933462  -0.43642582  -0.42168214  -0.40773816  -0.39793615
  -0.39101578  -0.38398543  -0.37285071  -0.36722169  -0.35413343
  -0.34212273  -0.33436977  -0.32556115  -0.31807717  -0.31451465
  -0.29996773  -0.29362667  -0.2752523   -0.27298496  -0.25894185
  -0.24291738  -0.2279528   -0.22514738  -0.21050919  -0.19002723
  -0.1776893   -0.15611142  -0.11840523  -0.02337218   0.03240597
   0.05374267   0.05729533   0.09110966   0.10301185   0.16871403
   0.17397964   0.22671047   0.23981753   0.24859669   0.25389684
   0.26523291   0.28604968   0.31120184   0.31406402   0.33600497
   0.34593664   0.36199952   0.37760255   0.37928267   0.38816523
   0.40876884   0.42363274   0.4380127    0.45378337   0.48044754
   0.49909544   0.51479117   0.52022594   0.55112615   0.56687843
   0.56938473   0.58982726   0.60931681   0.62769051   0.64083939
   0.64330404   0.65964641   0.68635466   0.71484508   0.72813091
   0.76295248   0.77779917   0.80381277   0.85136088   0.89207814
   0.91790267   0.96256238   0.97370897   0.98788497]
nelec by numeric integration = 146.0000032933702
    CPU time for vxc     37.91 sec, wall time     15.77 sec
E1 = -4103.77256614767  Ecoul = 1896.7205378081217  Exc = -124.69299911704485
cycle= 14 E= -835.5697034897  delta_E= -1.66e-10  |g|= 5.45e-06  |ddm|= 3.41e-05
    CPU time for cycle= 14     38.56 sec, wall time     15.87 sec
  HOMO = -0.118405403953105  LUMO = -0.0233723518420183
  mo_energy =
[-10.03581564 -10.03423983 -10.03045837 -10.02849453 -10.02566365
 -10.02410863 -10.02054402 -10.01874637 -10.01719499 -10.01621454
 -10.01607953 -10.01537209 -10.01339031 -10.01222304 -10.01108782
 -10.01094177 -10.00892231 -10.0082278  -10.00298044 -10.00147194
  -9.99853566  -9.99760993  -0.85802928  -0.83273131  -0.8221106
  -0.78873781  -0.75877884  -0.75547055  -0.73044866  -0.71208833
  -0.6954851   -0.67928472  -0.65784739  -0.6285431   -0.60313925
  -0.59966866  -0.58457513  -0.5651266   -0.53797957  -0.52268182
  -0.50177522  -0.48965669  -0.48519188  -0.46626524  -0.45149456
  -0.44933471  -0.43642592  -0.42168239  -0.40773828  -0.39793627
  -0.39101587  -0.38398548  -0.37285066  -0.3672215   -0.35413368
  -0.34212304  -0.33436991  -0.32556098  -0.31807735  -0.31451504
  -0.29996801  -0.29362668  -0.27525264  -0.27298504  -0.25894177
  -0.24291774  -0.22795311  -0.22514739  -0.21050938  -0.19002733
  -0.17768951  -0.15611157  -0.1184054   -0.02337235   0.032406
   0.05374252   0.05729504   0.09110944   0.10301151   0.16871409
   0.17397937   0.22670997   0.23981781   0.24859648   0.2538968
   0.26523301   0.28604978   0.31120169   0.31406395   0.33600437
   0.34593677   0.36199956   0.37760211   0.37928251   0.38816492
   0.40876886   0.42363266   0.43801275   0.45378347   0.4804472
   0.49909524   0.51479097   0.52022575   0.55112592   0.5668782
   0.56938476   0.58982709   0.60931661   0.62769042   0.64083907
   0.64330357   0.65964618   0.68635465   0.71484511   0.72813091
   0.76295189   0.77779881   0.80381278   0.85136087   0.89207729
   0.91790262   0.96256235   0.97370892   0.9878849 ]
nelec by numeric integration = 146.0000032933694
    CPU time for vxc     37.91 sec, wall time     15.72 sec
E1 = -4103.772576759465  Ecoul = 1896.7205489237158  Exc = -124.69299962084966
cycle= 15 E= -835.569703489706  delta_E= -5.91e-12  |g|= 2.52e-06  |ddm|= 8.91e-06
    CPU time for cycle= 15     38.42 sec, wall time     15.80 sec
  HOMO = -0.118405552913266  LUMO = -0.0233724586459201
  mo_energy =
[-10.0358157  -10.03424017 -10.03045824 -10.0284946  -10.02566285
 -10.02410792 -10.02054329 -10.01874541 -10.0171952  -10.01621412
 -10.01608037 -10.01537223 -10.01338944 -10.01222315 -10.0110886
 -10.01094119 -10.00892205 -10.00822742 -10.00297978 -10.00147176
  -9.99853675  -9.99761102  -0.8580293   -0.83273112  -0.82211045
  -0.78873754  -0.75877883  -0.75547038  -0.73044852  -0.71208831
  -0.69548511  -0.67928483  -0.65784755  -0.62854298  -0.60313914
  -0.59966876  -0.58457515  -0.5651266   -0.53797956  -0.52268161
  -0.5017751   -0.48965649  -0.48519198  -0.46626529  -0.45149442
  -0.44933467  -0.43642586  -0.42168234  -0.40773817  -0.39793619
  -0.39101586  -0.38398535  -0.37285059  -0.3672215   -0.35413364
  -0.34212291  -0.33436984  -0.32556101  -0.31807734  -0.31451491
  -0.29996791  -0.29362673  -0.27525246  -0.27298522  -0.25894151
  -0.2429178   -0.2279532   -0.22514721  -0.21050931  -0.19002728
  -0.17768947  -0.15611169  -0.11840555  -0.02337246   0.03240599
   0.0537426    0.05729488   0.09110938   0.10301157   0.16871439
   0.17397956   0.22670993   0.23981791   0.2485963    0.25389688
   0.26523302   0.28604984   0.31120168   0.31406406   0.33600439
   0.34593688   0.36199955   0.37760206   0.37928254   0.3881649
   0.40876909   0.42363279   0.43801295   0.45378353   0.48044722
   0.49909528   0.51479098   0.5202258    0.55112591   0.56687807
   0.56938477   0.58982708   0.60931677   0.62769029   0.64083909
   0.6433036    0.6596462    0.6863544    0.71484536   0.72813116
   0.76295206   0.77779901   0.80381271   0.8513613    0.89207748
   0.91790302   0.96256206   0.97370876   0.98788519]
nelec by numeric integration = 146.00000329337004
    CPU time for vxc     38.76 sec, wall time     15.97 sec
E1 = -4103.772569398815  Ecoul = 1896.72054137184  Exc = -124.69299942960431
Extra cycle  E= -835.569703489687  delta_E= 1.96e-11  |g|= 6.25e-06  |ddm|= 1.34e-05
    CPU time for scf_cycle    665.76 sec, wall time    271.92 sec
    CPU time for SCF    665.76 sec, wall time    271.92 sec
converged SCF energy = -835.569703489687
nelec by numeric integration = 146.00000329337004
    CPU time for vxc     38.16 sec, wall time     15.75 sec
 ** Mulliken pop  **
pop of  0 C 1s            1.99121
pop of  0 C 2s            1.20369
pop of  0 C 2px           0.95220
pop of  0 C 2py           0.91602
pop of  0 C 2pz           0.91539
pop of  1 C 1s            1.99054
pop of  1 C 2s            1.06414
pop of  1 C 2px           1.02244
pop of  1 C 2py           0.99728
pop of  1 C 2pz           0.96114
pop of  2 C 1s            1.99096
pop of  2 C 2s            1.12250
pop of  2 C 2px           0.99956
pop of  2 C 2py           0.97558
pop of  2 C 2pz           0.99914
pop of  3 C 1s            1.99112
pop of  3 C 2s            1.18343
pop of  3 C 2px           0.99720
pop of  3 C 2py           0.92240
pop of  3 C 2pz           0.94752
pop of  4 C 1s            1.99079
pop of  4 C 2s            1.05474
pop of  4 C 2px           0.99656
pop of  4 C 2py           1.01050
pop of  4 C 2pz           1.01095
pop of  5 C 1s            1.99157
pop of  5 C 2s            1.21549
pop of  5 C 2px           0.94986
pop of  5 C 2py           0.93091
pop of  5 C 2pz           0.92478
pop of  6 C 1s            1.99139
pop of  6 C 2s            1.09337
pop of  6 C 2px           1.02198
pop of  6 C 2py           1.05685
pop of  6 C 2pz           0.96813
pop of  7 C 1s            1.99123
pop of  7 C 2s            1.11736
pop of  7 C 2px           0.99737
pop of  7 C 2py           1.04010
pop of  7 C 2pz           0.96849
pop of  8 C 1s            1.99027
pop of  8 C 2s            1.04202
pop of  8 C 2px           1.01415
pop of  8 C 2py           0.99082
pop of  8 C 2pz           1.00936
pop of  9 C 1s            1.99086
pop of  9 C 2s            1.09950
pop of  9 C 2px           1.00581
pop of  9 C 2py           0.93337
pop of  9 C 2pz           0.97036
pop of  10 C 1s           1.99090
pop of  10 C 2s           1.14405
pop of  10 C 2px          1.00304
pop of  10 C 2py          0.94512
pop of  10 C 2pz          1.01773
pop of  11 C 1s           1.99087
pop of  11 C 2s           1.14928
pop of  11 C 2px          0.99680
pop of  11 C 2py          0.95002
pop of  11 C 2pz          0.97914
pop of  12 C 1s           1.99142
pop of  12 C 2s           1.23021
pop of  12 C 2px          0.92590
pop of  12 C 2py          0.92510
pop of  12 C 2pz          0.89948
pop of  13 C 1s           1.99070
pop of  13 C 2s           1.12699
pop of  13 C 2px          0.98937
pop of  13 C 2py          0.97116
pop of  13 C 2pz          0.94042
pop of  14 C 1s           1.99187
pop of  14 C 2s           1.17149
pop of  14 C 2px          1.02604
pop of  14 C 2py          0.95890
pop of  14 C 2pz          1.03234
pop of  15 C 1s           1.99100
pop of  15 C 2s           1.19535
pop of  15 C 2px          0.95871
pop of  15 C 2py          0.94602
pop of  15 C 2pz          0.97832
pop of  16 C 1s           1.99068
pop of  16 C 2s           1.15482
pop of  16 C 2px          0.94203
pop of  16 C 2py          0.95941
pop of  16 C 2pz          0.93148
pop of  17 C 1s           1.99141
pop of  17 C 2s           1.20521
pop of  17 C 2px          0.95061
pop of  17 C 2py          0.91219
pop of  17 C 2pz          0.92383
pop of  18 C 1s           1.99067
pop of  18 C 2s           1.09665
pop of  18 C 2px          1.01054
pop of  18 C 2py          0.97397
pop of  18 C 2pz          1.03069
pop of  19 C 1s           1.99198
pop of  19 C 2s           1.26729
pop of  19 C 2px          0.94216
pop of  19 C 2py          0.92471
pop of  19 C 2pz          0.96456
pop of  20 C 1s           1.99062
pop of  20 C 2s           1.07953
pop of  20 C 2px          1.00778
pop of  20 C 2py          1.03728
pop of  20 C 2pz          0.99148
pop of  21 C 1s           1.99118
pop of  21 C 2s           1.17750
pop of  21 C 2px          1.00407
pop of  21 C 2py          0.96955
pop of  21 C 2pz          0.94427
pop of  22 H 1s           0.92428
pop of  23 H 1s           0.93503
pop of  24 H 1s           0.93693
pop of  25 H 1s           0.96193
pop of  26 H 1s           0.87745
pop of  27 H 1s           0.89343
pop of  28 H 1s           0.89694
pop of  29 H 1s           0.91695
pop of  30 H 1s           0.87441
pop of  31 H 1s           0.90419
pop of  32 H 1s           0.90002
pop of  33 H 1s           0.90522
pop of  34 H 1s           0.90231
pop of  35 H 1s           0.90257
 ** Mulliken atomic charges  **
charge of    0C =      0.02148
charge of    1C =     -0.03553
charge of    2C =     -0.08773
charge of    3C =     -0.04168
charge of    4C =     -0.06354
charge of    5C =     -0.01261
charge of    6C =     -0.13172
charge of    7C =     -0.11455
charge of    8C =     -0.04663
charge of    9C =      0.00010
charge of   10C =     -0.10084
charge of   11C =     -0.06612
charge of   12C =      0.02790
charge of   13C =     -0.01864
charge of   14C =     -0.18064
charge of   15C =     -0.06940
charge of   16C =      0.02158
charge of   17C =      0.01675
charge of   18C =     -0.10253
charge of   19C =     -0.09071
charge of   20C =     -0.10668
charge of   21C =     -0.08658
charge of   22H =      0.07572
charge of   23H =      0.06497
charge of   24H =      0.06307
charge of   25H =      0.03807
charge of   26H =      0.12255
charge of   27H =      0.10657
charge of   28H =      0.10306
charge of   29H =      0.08305
charge of   30H =      0.12559
charge of   31H =      0.09581
charge of   32H =      0.09998
charge of   33H =      0.09478
charge of   34H =      0.09769
charge of   35H =      0.09743
Dipole moment(X, Y, Z, Debye):  0.23919, -1.09106, -0.88220
nelec by numeric integration = 146.00000329337004
    CPU time for vxc     38.69 sec, wall time     15.94 sec
E1 = -4103.772569398815  Ecoul = 1896.7205413718393  Exc = -124.69299942960431
nelec by numeric integration = 146.00000329337004
    CPU time for vxc     37.94 sec, wall time     15.76 sec
E1 = -4103.772569398815  Ecoul = 1896.7205413718398  Exc = -124.69299942960431
