System: uname_result(system='Linux', node='cosmopc18', release='5.15.0-97-generic', version='#107-Ubuntu SMP Wed Feb 7 13:26:48 UTC 2024', machine='x86_64')  Threads 4
Python 3.11.8 (main, Feb 26 2024, 21:39:34) [GCC 11.2.0]
numpy 1.26.4  scipy 1.11.4
Date: Tue Apr  9 12:31:50 2024
PySCF version 2.3.0
PySCF path  /home/saade/miniconda3/envs/tutorial/lib/python3.11/site-packages/pyscf

[ENV] PYSCFAD_BACKEND torch
[CONFIG] conf_file None
[INPUT] verbose = 5
[INPUT] max_memory = 4000 
[INPUT] num. atoms = 36
[INPUT] num. electrons = 146
[INPUT] charge = 0
[INPUT] spin (= nelec alpha-beta = 2S) = 0
[INPUT] symmetry False subgroup None
[INPUT] Mole.unit = angstrom
[INPUT] Symbol           X                Y                Z      unit          X                Y                Z       unit  Magmom
[INPUT]  1 C      0.041372000000   3.723477000000   0.688853000000 AA    0.078181749226   7.036351761117   1.301743510085 Bohr   0.0
[INPUT]  2 C     -0.046665000000   3.745624000000  -0.829151000000 AA   -0.088184069603   7.078203525598  -1.566868305909 Bohr   0.0
[INPUT]  3 C      0.244843000000   5.065840000000   1.281900000000 AA    0.462686213517   9.573050190867   2.422439919080 Bohr   0.0
[INPUT]  4 C     -0.092814000000   2.484740000000   1.436607000000 AA   -0.175393040525   4.695478090752   2.714793778633 Bohr   0.0
[INPUT]  5 C      0.031576000000   4.949487000000  -1.445398000000 AA    0.059669992109   9.353174887095  -2.731406360994 Bohr   0.0
[INPUT]  6 C      0.103437000000   2.658218000000  -1.485880000000 AA    0.195467601147   5.023303999389  -2.807906253969 Bohr   0.0
[INPUT]  7 C     -0.005760000000   6.155830000000  -0.855001000000 AA   -0.010884822477  11.632832769381  -1.615717726229 Bohr   0.0
[INPUT]  8 C      0.049427000000   6.052922000000   0.534935000000 AA    0.093403493159  11.438364833355   1.010880644444 Bohr   0.0
[INPUT]  9 C     -0.288001000000   1.311996000000   0.721402000000 AA   -0.544243013601   2.479313116525   1.363252205713 Bohr   0.0
[INPUT] 10 C      0.116073000000   1.341752000000  -0.656276000000 AA    0.219346180457   2.535543807087  -1.240181902125 Bohr   0.0
[INPUT] 11 C      0.100691000000  -0.088358000000   1.191380000000 AA    0.190278413209  -0.166972420914   2.251381910284 Bohr   0.0
[INPUT] 12 C     -0.197443000000   0.202719000000  -1.368673000000 AA   -0.373113195212   0.383083390246  -2.586417124087 Bohr   0.0
[INPUT] 13 C      0.007706000000  -1.289641000000   0.627315000000 AA    0.014562229516  -2.437068289010   1.185453543832 Bohr   0.0
[INPUT] 14 C     -0.188733000000  -1.299686000000  -0.737145000000 AA   -0.356653680668  -2.456050587931  -1.393002164093 Bohr   0.0
[INPUT] 15 C      0.077601000000  -2.401146000000   1.505229000000 AA    0.146644636992  -4.537508325095   2.844470564753 Bohr   0.0
[INPUT] 16 C      0.019808000000  -2.396754000000  -1.456994000000 AA    0.037431695075  -4.529208647956  -2.753319625135 Bohr   0.0
[INPUT] 17 C      0.002150000000  -3.756678000000   0.496079000000 AA    0.004062911168  -7.099092558179   0.937453446148 Bohr   0.0
[INPUT] 18 C      0.054425000000  -3.579591000000  -0.749409000000 AA    0.102848344329  -6.764446627958  -1.416177765284 Bohr   0.0
[INPUT] 19 C      0.146307000000  -4.832196000000   1.374967000000 AA    0.276480160107  -9.131527020219   2.598311060315 Bohr   0.0
[INPUT] 20 C      0.096430000000  -5.031354000000  -1.427748000000 AA    0.182226290192  -9.507881095735  -2.698052694896 Bohr   0.0
[INPUT] 21 C     -0.149214000000  -6.280206000000   0.460573000000 AA   -0.281973593951 -11.867869345850   0.870356830369 Bohr   0.0
[INPUT] 22 C      0.183801000000  -6.215236000000  -0.908948000000 AA    0.347333551421 -11.745093839537  -1.717662781471 Bohr   0.0
[INPUT] 23 H     -0.069658000000   4.920061000000   2.434293000000 AA   -0.131634542385   9.297567806154   4.600147076946 Bohr   0.0
[INPUT] 24 H     -0.008295000000   2.456179000000   2.516426000000 AA   -0.015675278203   4.641505622908   4.755355952735 Bohr   0.0
[INPUT] 25 H      0.130228000000   5.005826000000  -2.469643000000 AA    0.246095253750   9.459640167227  -4.666948895449 Bohr   0.0
[INPUT] 26 H     -0.101670000000   2.476704000000  -2.411896000000 AA   -0.192128455085   4.680292251615  -4.557822880934 Bohr   0.0
[INPUT] 27 H     -0.097434000000   7.091565000000  -1.230349000000 AA   -0.184123575221  13.401115644551  -2.325022647632 Bohr   0.0
[INPUT] 28 H     -0.007817000000   6.886656000000   1.013583000000 AA   -0.014771989116  13.013893754093   1.915394274515 Bohr   0.0
[INPUT] 29 H     -0.013352000000   0.103300000000   2.535162000000 AA   -0.025231623215   0.195208708668   4.790761861405 Bohr   0.0
[INPUT] 30 H     -0.017954000000  -0.085529000000  -2.527634000000 AA   -0.033928142840  -0.161626385708  -4.776536003139 Bohr   0.0
[INPUT] 31 H     -0.079797000000  -2.386947000000   2.522726000000 AA   -0.150794475562  -4.510676103852   4.767261227320 Bohr   0.0
[INPUT] 32 H      0.089526000000  -2.515951000000  -2.355811000000 AA    0.169179621028  -4.754458332826  -4.451837591238 Bohr   0.0
[INPUT] 33 H     -0.195960000000  -4.917759000000   2.520645000000 AA   -0.370310731370  -9.293217656615   4.763328707254 Bohr   0.0
[INPUT] 34 H     -0.000198000000  -4.880546000000  -2.326019000000 AA   -0.000374165773  -9.222895278342  -4.395538870535 Bohr   0.0
[INPUT] 35 H     -0.023707000000  -6.977027000000   1.373858000000 AA   -0.044799737235 -13.184670193696   2.596215354043 Bohr   0.0
[INPUT] 36 H      0.145173000000  -6.950579000000  -1.261611000000 AA    0.274337210681 -13.134690717153  -2.384099265739 Bohr   0.0
[INPUT] ---------------- BASIS SET ---------------- 
[INPUT] l, kappa, [nprim/nctr], expnt,             c_1 c_2 ...
[INPUT] H
[INPUT] 0    0    [3    /1   ]  3.42525091        0.15432897
                                0.62391373        0.53532814
                                0.1688554         0.44463454
[INPUT] C
[INPUT] 0    0    [3    /1   ]  71.616837         0.15432897
                                13.045096         0.53532814
                                3.5305122         0.44463454
[INPUT] 0    0    [3    /1   ]  2.9412494         -0.09996723
                                0.6834831         0.39951283
                                0.2222899         0.70011547
[INPUT] 1    0    [3    /1   ]  2.9412494         0.15591627
                                0.6834831         0.60768372
                                0.2222899         0.39195739

nuclear repulsion = 1491.15427976883
number of shells = 80
number of NR pGTOs = 372
number of NR cGTOs = 124
basis = sto3g
ecp = {}
CPU time:     24910.37
atom C rad-grids = 99, ang-grids = [ 50  50  50  50  50  50  50  50  50  50  50  50  50  50  50  50  50  50
  50  50  50  50  50  50  50  50  50  50  50  50  50  86  86  86  86  86
  86  86  86  86  86  86  86 434 434 434 434 434 434 434 434 434 590 590
 590 590 590 590 590 590 590 590 590 590 590 590 590 590 590 590 590 590
 590 590 590 590 590 590 590 434 434 434 434 434 434 434 434 434 434 434
 434 434 434 434 434 434 434 434 434]
atom H rad-grids = 99, ang-grids = [ 50  50  50  50  50  50  50  50  50  50  50  50  50  50  50  50  50  50
  50  50  50  50  50  50  50  50  50  50  86  86  86  86  86  86  86 434
 434 434 434 434 434 434 434 590 590 590 590 590 590 590 590 590 590 590
 590 590 590 590 590 590 590 590 590 590 590 590 590 590 590 434 434 434
 434 434 434 434 434 434 434 434 434 434 434 434 434 434 434 434 434 434
 434 434 434 434 434 434 434 434 434]
tot_boxes 5270, boxes in each direction [ 8 29 15]
Padding 0 grids
tot grids = 1157832


******** <class 'pyscf.dft.rks.RKS'> ********
method = RKS
initial guess = minao
damping factor = 0
level_shift factor = 0
DIIS = <class 'pyscf.scf.diis.CDIIS'>
diis_start_cycle = 1
diis_space = 8
SCF conv_tol = 1e-10
SCF conv_tol_grad = None
SCF max_cycles = 50
direct_scf = True
direct_scf_tol = 1e-13
chkfile to save SCF result = /home/saade/mlelec/tutorials/tmpg510864w
max_memory 4000 MB (current use 637 MB)
XC library pyscf.dft.libxc version 6.1.0
    S. Lehtola, C. Steigemann, M. J.T. Oliveira, and M. A.L. Marques.,  SoftwareX 7, 1–5 (2018)
XC functionals = b3lypg
    P. J. Stephens, F. J. Devlin, C. F. Chabalowski, and M. J. Frisch.,  J. Phys. Chem. 98, 11623 (1994)
radial grids: 
    Treutler-Ahlrichs [JCP 102, 346 (1995); DOI:10.1063/1.469408] (M4) radial grids
    
becke partition: Becke, JCP 88, 2547 (1988); DOI:10.1063/1.454033
pruning grids: <function nwchem_prune at 0x7f9db5616ca0>
grids dens level: 3
symmetrized grids: False
atomic radii adjust function: <function treutler_atomic_radii_adjust at 0x7f9db5617380>
User specified grid scheme (99, 590)
small_rho_cutoff = 1e-07
Set gradient conv threshold to 1e-05
Initial guess from minao.
nelec by numeric integration = 145.26741584282615
    CPU time for vxc     37.54 sec, wall time     15.71 sec
E1 = -4082.319342127583  Ecoul = 1875.9106100704903  Exc = -126.08655163313675
init E= -841.341003921395
cond(S) = 19.72183274633682
    CPU time for initialize scf     47.12 sec, wall time     18.03 sec
  HOMO = -0.193409459257274  LUMO = -0.154520129904524
  mo_energy =
[-1.01390019e+01 -1.01329053e+01 -1.01232883e+01 -1.01216770e+01
 -1.01184488e+01 -1.01169640e+01 -1.01138121e+01 -1.01094987e+01
 -1.01092314e+01 -1.01079630e+01 -1.01063849e+01 -1.00996806e+01
 -1.00990177e+01 -1.00987958e+01 -1.00985540e+01 -1.00967429e+01
 -1.00892922e+01 -1.00833944e+01 -1.00825942e+01 -1.00814813e+01
 -1.00647036e+01 -1.00580524e+01 -1.08982726e+00 -1.07688536e+00
 -1.03057675e+00 -9.98357334e-01 -9.60943563e-01 -9.33945432e-01
 -9.19030399e-01 -8.87131449e-01 -8.72400446e-01 -8.22739667e-01
 -7.80878471e-01 -7.67334418e-01 -7.30849867e-01 -7.24201039e-01
 -7.04279033e-01 -6.83131885e-01 -6.56467125e-01 -6.50060473e-01
 -6.08475317e-01 -5.93879249e-01 -5.80800876e-01 -5.59563061e-01
 -5.47248374e-01 -5.29050096e-01 -5.23438661e-01 -5.11867225e-01
 -4.98605985e-01 -4.88500008e-01 -4.72634986e-01 -4.69004392e-01
 -4.64683033e-01 -4.59288648e-01 -4.48635557e-01 -4.34492286e-01
 -4.24879289e-01 -4.13724513e-01 -4.04915361e-01 -4.00125180e-01
 -3.80007564e-01 -3.70650089e-01 -3.69795087e-01 -3.54403793e-01
 -3.43448866e-01 -3.31272634e-01 -3.24931569e-01 -3.18801485e-01
 -2.95818912e-01 -2.71353697e-01 -2.68074252e-01 -2.31009224e-01
 -1.93409459e-01 -1.54520130e-01 -1.16063095e-01 -8.82134134e-02
 -5.52212559e-02 -3.32136923e-02 -1.73816688e-02  2.01453028e-05
  2.50893568e-02  7.53468889e-02  9.76966518e-02  1.15769388e-01
  1.23004313e-01  1.31603382e-01  1.44851483e-01  1.58923419e-01
  1.72190628e-01  1.90872413e-01  2.08360183e-01  2.14646081e-01
  2.39772514e-01  2.44396950e-01  2.64483867e-01  2.82235716e-01
  3.05816363e-01  3.11334387e-01  3.35624374e-01  3.48987695e-01
  3.71115080e-01  3.90037703e-01  4.15519777e-01  4.31450572e-01
  4.44163747e-01  4.59099328e-01  4.67404773e-01  4.83885396e-01
  5.00007114e-01  5.11890262e-01  5.40614205e-01  5.57259019e-01
  5.64309380e-01  5.73720346e-01  5.88194538e-01  5.92970257e-01
  6.11683085e-01  6.22838916e-01  6.45673317e-01  6.76337057e-01
  7.29389186e-01  7.64721670e-01  7.81856000e-01  8.27044877e-01]
nelec by numeric integration = 146.00000107673657
    CPU time for vxc     38.03 sec, wall time     15.72 sec
E1 = -4096.82960649139  Ecoul = 1894.8014136197849  Exc = -124.73936574666209
cycle= 1 E= -835.613278849433  delta_E= 5.73  |g|= 0.265  |ddm|= 9.25
    CPU time for cycle= 1     38.31 sec, wall time     15.77 sec
  HOMO = -0.082990667688372  LUMO = -0.012192248488037
  mo_energy =
[-10.04538042 -10.03096413 -10.00656644 -10.00649206 -10.00226417
 -10.00174795 -10.001037    -9.99909572  -9.99741648  -9.99502635
  -9.9934747   -9.98673948  -9.98502575  -9.98364334  -9.97963237
  -9.97795859  -9.97662398  -9.97333745  -9.9628074   -9.95490542
  -9.9495366   -9.92843885  -0.83084523  -0.82522653  -0.79270197
  -0.77336532  -0.74598263  -0.73555712  -0.72068229  -0.698051
  -0.68281847  -0.65289528  -0.62516204  -0.60958834  -0.58950973
  -0.58362056  -0.56426375  -0.54882127  -0.5305312   -0.51519892
  -0.48778693  -0.48186625  -0.47151207  -0.44154397  -0.4388307
  -0.42835248  -0.41844384  -0.40483584  -0.39463359  -0.38296783
  -0.37480731  -0.37031199  -0.35585067  -0.34600174  -0.33838388
  -0.3335163   -0.32510389  -0.311954    -0.29481014  -0.29345147
  -0.27962621  -0.26249611  -0.25924489  -0.25739547  -0.24084609
  -0.22600368  -0.22041238  -0.20729815  -0.1894793   -0.18003409
  -0.15855328  -0.12597974  -0.08299067  -0.01219225   0.02691771
   0.05840823   0.09596113   0.13003491   0.1318488    0.15546294
   0.18327525   0.22732938   0.23724812   0.2554396    0.27825909
   0.28820027   0.29341061   0.3097347    0.31606587   0.32825306
   0.35557833   0.35836748   0.36197294   0.39331429   0.40185387
   0.42086036   0.44224958   0.44989526   0.4877344    0.49231941
   0.51905595   0.53768282   0.57101711   0.5833399    0.5877592
   0.59896675   0.61555953   0.63137082   0.65466444   0.67013999
   0.68889347   0.70575209   0.71672457   0.73286744   0.74485924
   0.75159818   0.77455565   0.77961683   0.81164635   0.83835851
   0.89438534   0.92748702   0.93766692   0.97422348]
nelec by numeric integration = 146.00000112552587
    CPU time for vxc     38.31 sec, wall time     15.75 sec
E1 = -4092.4108002272396  Ecoul = 1890.2816677900885  Exc = -124.60866209662429
cycle= 2 E= -835.583514764941  delta_E= 0.0298  |g|= 0.388  |ddm|= 1.08
    CPU time for cycle= 2     38.71 sec, wall time     15.82 sec
  HOMO = -0.086777697300996  LUMO = -0.0122975914097702
  mo_energy =
[-10.03040215 -10.02587672 -10.02245392 -10.02189387 -10.01996958
 -10.01983422 -10.01685734 -10.01532292 -10.01490209 -10.01223152
 -10.00994063 -10.0092882  -10.00897745 -10.00461968 -10.00424071
  -9.99787132  -9.99725744  -9.99652406  -9.98296288  -9.97401013
  -9.96842272  -9.94015619  -0.84782636  -0.83970258  -0.80738362
  -0.7882219   -0.76437397  -0.74277697  -0.72488337  -0.71111961
  -0.70004667  -0.66128648  -0.63563959  -0.61175766  -0.59334535
  -0.59224589  -0.57167268  -0.56249773  -0.53392605  -0.52963641
  -0.49908939  -0.49428035  -0.47608705  -0.45830569  -0.44199342
  -0.43505996  -0.42116488  -0.41583665  -0.3983785   -0.3939995
  -0.38294174  -0.38042424  -0.36488104  -0.35882881  -0.34729571
  -0.34406519  -0.33329592  -0.32687597  -0.31012162  -0.30395741
  -0.28864067  -0.27862792  -0.27124965  -0.26571625  -0.25686851
  -0.23167464  -0.23026923  -0.21303346  -0.19993761  -0.17490669
  -0.1728845   -0.13343438  -0.0867777   -0.01229759   0.01956682
   0.05051096   0.08263839   0.11254657   0.12362448   0.14082806
   0.16932727   0.22381818   0.24593578   0.26303118   0.26773337
   0.27076478   0.28819249   0.30107567   0.30882196   0.32037344
   0.33773464   0.34790177   0.37163444   0.39048792   0.40039488
   0.4176755    0.43386839   0.45731728   0.47271795   0.4850326
   0.50738067   0.53170489   0.5595069    0.57096147   0.57349213
   0.59532287   0.60832137   0.6200334    0.64415165   0.64940823
   0.67637974   0.69205522   0.7049829    0.71598268   0.72928712
   0.74023733   0.75222266   0.75861308   0.79432053   0.82674659
   0.87007889   0.90708422   0.92017727   0.95912764]
nelec by numeric integration = 146.00000107344462
    CPU time for vxc     38.22 sec, wall time     15.76 sec
E1 = -4093.7457639067748  Ecoul = 1891.6210930051905  Exc = -124.63816262206767
cycle= 3 E= -835.608553754818  delta_E= -0.025  |g|= 0.29  |ddm|= 1.17
    CPU time for cycle= 3     38.60 sec, wall time     15.83 sec
  HOMO = -0.0976695466734744  LUMO = -0.0275834679306766
  mo_energy =
[-10.03679203 -10.03132174 -10.02890551 -10.02851324 -10.02801227
 -10.02667626 -10.02259875 -10.02071049 -10.01772671 -10.01655458
 -10.01571125 -10.01388128 -10.01202408 -10.01017278 -10.00889542
 -10.00765987 -10.00731729 -10.00710648 -10.00345079 -10.0003134
  -9.99357575  -9.97483805  -0.85491188  -0.8441056   -0.8142916
  -0.79187078  -0.76843137  -0.75007573  -0.73869711  -0.71363068
  -0.70220262  -0.66649002  -0.63677792  -0.62492363  -0.60477257
  -0.59863237  -0.57726408  -0.56126778  -0.53787572  -0.53354921
  -0.50301242  -0.49428116  -0.48114977  -0.45929334  -0.44912581
  -0.43930951  -0.43335018  -0.41790105  -0.40691051  -0.39846218
  -0.38449893  -0.38317056  -0.37261554  -0.36664373  -0.3562657
  -0.34830466  -0.33874867  -0.3288503   -0.31390025  -0.31213294
  -0.29429051  -0.28462557  -0.27823711  -0.26421777  -0.2596921
  -0.24026993  -0.23916842  -0.22838929  -0.20195605  -0.1905948
  -0.17768622  -0.1392057   -0.09766955  -0.02758347   0.01351616
   0.04353088   0.07782364   0.10381668   0.11813097   0.13884826
   0.16341383   0.21093632   0.22953889   0.24580554   0.26440239
   0.26731205   0.28094186   0.29705602   0.30275564   0.32024432
   0.34164597   0.34715804   0.36103406   0.37928486   0.39482917
   0.41454756   0.43527567   0.43690132   0.47453058   0.48444947
   0.50281991   0.52228407   0.55473305   0.5670169    0.57311058
   0.58882388   0.59911982   0.62050386   0.63514877   0.64546793
   0.67307883   0.69066707   0.69885935   0.70851517   0.71851533
   0.73122998   0.75206931   0.75754002   0.78124176   0.80956165
   0.87003044   0.90592299   0.91263647   0.95449749]
nelec by numeric integration = 146.0000010975023
    CPU time for vxc     38.12 sec, wall time     15.73 sec
E1 = -4094.5008647787436  Ecoul = 1892.3549914675143  Exc = -124.64647194857011
cycle= 4 E= -835.638065490965  delta_E= -0.0295  |g|= 0.116  |ddm|= 0.682
    CPU time for cycle= 4     38.74 sec, wall time     15.82 sec
  HOMO = -0.0968058004815646  LUMO = -0.0263502408268625
  mo_energy =
[-10.03375896 -10.03287154 -10.02713207 -10.02581629 -10.02236734
 -10.02187453 -10.02081806 -10.01845002 -10.01779083 -10.01724745
 -10.01702108 -10.01681085 -10.01562458 -10.01531917 -10.01428806
 -10.01327117 -10.01283995 -10.0083723  -10.00195855  -9.99849683
  -9.99304502  -9.98792346  -0.85218621  -0.84589124  -0.8139167
  -0.79422333  -0.76910101  -0.75071896  -0.73493128  -0.71511871
  -0.70376804  -0.66658538  -0.63770049  -0.62360021  -0.60192815
  -0.59795346  -0.57831481  -0.56323497  -0.53886428  -0.53402488
  -0.5033353   -0.49615469  -0.48146438  -0.46067838  -0.44627785
  -0.43787489  -0.43384301  -0.4179282   -0.40618656  -0.39947338
  -0.38637644  -0.38547191  -0.37016524  -0.36603907  -0.35498857
  -0.34917518  -0.33996224  -0.32912204  -0.31517685  -0.31170673
  -0.29353008  -0.28324613  -0.27814547  -0.2687977   -0.26234146
  -0.24012793  -0.23856407  -0.22456657  -0.20414953  -0.19040645
  -0.17891044  -0.14004803  -0.0968058   -0.02635024   0.01211515
   0.04233395   0.07821606   0.10602443   0.11518935   0.13576648
   0.16203176   0.21343902   0.23227897   0.25047674   0.26563846
   0.26608831   0.28079329   0.29652012   0.30194571   0.31738868
   0.34214127   0.34539797   0.36380102   0.38101702   0.39364256
   0.41347086   0.43389139   0.44029541   0.47109317   0.48068194
   0.50324229   0.52491845   0.55354518   0.56944664   0.57115447
   0.58926402   0.597897     0.61660053   0.63458297   0.64542971
   0.67132214   0.68784985   0.69827615   0.71017547   0.72229102
   0.73060147   0.75006038   0.75520998   0.78593705   0.8151599
   0.86656104   0.90172682   0.91495328   0.95311179]
nelec by numeric integration = 146.0000010954748
    CPU time for vxc     37.60 sec, wall time     15.61 sec
E1 = -4094.208437907884  Ecoul = 1892.0588749241147  Exc = -124.64733787728154
cycle= 5 E= -835.642621092217  delta_E= -0.00456  |g|= 0.0361  |ddm|= 0.214
    CPU time for cycle= 5     38.29 sec, wall time     15.72 sec
  HOMO = -0.0966981481085062  LUMO = -0.0256437097783865
  mo_energy =
[-10.0324904  -10.02878925 -10.0278298  -10.02646186 -10.02577215
 -10.02388622 -10.02218348 -10.01965171 -10.01701572 -10.01665874
 -10.01628115 -10.01605406 -10.01534475 -10.01289263 -10.01235682
 -10.01143285 -10.00951548 -10.00638803  -9.99843654  -9.99591129
  -9.99427094  -9.98990245  -0.85216697  -0.84583177  -0.81269975
  -0.79255129  -0.76800701  -0.75015742  -0.73551752  -0.715146
  -0.70344315  -0.66577891  -0.63731753  -0.62286205  -0.60224115
  -0.59764515  -0.57773349  -0.56328953  -0.53733105  -0.53405172
  -0.5023744   -0.49566963  -0.48067105  -0.46016394  -0.44651057
  -0.43778022  -0.43384838  -0.41839024  -0.40601309  -0.39887816
  -0.3861438   -0.38493632  -0.3701775   -0.36610355  -0.35496561
  -0.34877718  -0.33973633  -0.3294375   -0.3150498   -0.31105407
  -0.29330499  -0.28312188  -0.27741338  -0.26874628  -0.26130836
  -0.23939982  -0.2385011   -0.22519402  -0.20448086  -0.18985818
  -0.17882608  -0.13974755  -0.09669815  -0.02564371   0.01266241
   0.04265056   0.07748928   0.1059406    0.11702863   0.13653645
   0.16279846   0.21364507   0.23278364   0.25081022   0.26542251
   0.26581506   0.28091918   0.29678322   0.3020701    0.31807851
   0.34157136   0.34520193   0.36263611   0.38147711   0.39442207
   0.41333044   0.43395855   0.44003715   0.47110825   0.48055292
   0.50321425   0.52412481   0.55357596   0.56909934   0.57139731
   0.58969493   0.59855755   0.61855098   0.63515755   0.64584325
   0.67119524   0.6904886    0.69867669   0.71085619   0.72281293
   0.73228884   0.7504947    0.75586866   0.78580601   0.81499204
   0.86745403   0.90258969   0.91531696   0.95517838]
nelec by numeric integration = 146.00000109623628
    CPU time for vxc     37.71 sec, wall time     15.66 sec
E1 = -4094.27029116151  Ecoul = 1892.1182936934144  Exc = -124.64518265219469
cycle= 6 E= -835.642900351456  delta_E= -0.000279  |g|= 0.0234  |ddm|= 0.0782
    CPU time for cycle= 6     38.22 sec, wall time     15.74 sec
  HOMO = -0.0966585182417274  LUMO = -0.025183527856428
  mo_energy =
[-10.03110158 -10.02871719 -10.02856714 -10.02728101 -10.0257857
 -10.02160427 -10.02008862 -10.01949371 -10.01653592 -10.01598722
 -10.01555518 -10.01461208 -10.01418901 -10.01400863 -10.01228097
 -10.00943223 -10.00789097 -10.00462169 -10.00243559  -9.99285927
  -9.99256892  -9.99154151  -0.85172358  -0.84508679  -0.81271465
  -0.7924075   -0.76772862  -0.74976748  -0.73513203  -0.71426268
  -0.70264056  -0.66595088  -0.63671975  -0.6227371   -0.60195391
  -0.59746714  -0.57736921  -0.56252833  -0.53760584  -0.53348886
  -0.50238986  -0.49515651  -0.48069794  -0.45976653  -0.44653669
  -0.43721239  -0.4333812   -0.41790939  -0.40561836  -0.39860421
  -0.38557971  -0.38423374  -0.36993924  -0.36566921  -0.35476438
  -0.34832015  -0.33915135  -0.32892964  -0.31442293  -0.31097886
  -0.29332749  -0.28315757  -0.27753239  -0.26751414  -0.26088828
  -0.23923391  -0.23849289  -0.22492327  -0.2035219   -0.18962219
  -0.17816234  -0.13964925  -0.09665852  -0.02518353   0.01289759
   0.04328243   0.07832545   0.1063135    0.11686195   0.13718976
   0.16331787   0.21365432   0.23271879   0.2500278    0.26590847
   0.26649821   0.28117242   0.29709082   0.30242289   0.31861361
   0.34219956   0.34596115   0.36330857   0.38154387   0.39432433
   0.41407452   0.43465888   0.44041709   0.47229      0.48169033
   0.50370186   0.5246207    0.55445533   0.5692614    0.57214467
   0.59023359   0.59921486   0.61827303   0.6357175    0.64625156
   0.6721247    0.68978826   0.69910526   0.71083322   0.7224706
   0.7318177    0.75135765   0.75677328   0.78561213   0.81464606
   0.86866013   0.90390798   0.91523265   0.95468188]
nelec by numeric integration = 146.00000109761854
    CPU time for vxc     38.13 sec, wall time     15.72 sec
E1 = -4094.2279620124846  Ecoul = 1892.0750337581042  Exc = -124.64443825471781
cycle= 7 E= -835.643086740264  delta_E= -0.000186  |g|= 0.00496  |ddm|= 0.0394
    CPU time for cycle= 7     38.58 sec, wall time     15.80 sec
  HOMO = -0.0966042633927481  LUMO = -0.0250694614595131
  mo_energy =
[-10.03139283 -10.02889069 -10.02777687 -10.02687837 -10.02470397
 -10.02164332 -10.01980509 -10.018707   -10.01672815 -10.01608827
 -10.01570672 -10.01415394 -10.01386225 -10.01340657 -10.01255668
 -10.01002787 -10.00864997 -10.00484673 -10.00159197  -9.99341445
  -9.99226453  -9.99117964  -0.85152301  -0.84500457  -0.81260635
  -0.79238572  -0.76773745  -0.74961299  -0.73490343  -0.71424819
  -0.70270027  -0.66572082  -0.63673847  -0.62263806  -0.60173511
  -0.59734699  -0.57726998  -0.56257471  -0.53749225  -0.53351539
  -0.50228455  -0.49520242  -0.48057658  -0.45972977  -0.44628256
  -0.43718132  -0.43332191  -0.41774221  -0.40556178  -0.39850863
  -0.3855363   -0.38431712  -0.36978274  -0.36556268  -0.35457995
  -0.34829483  -0.3391441   -0.32885743  -0.31437873  -0.31085355
  -0.29314074  -0.28296307  -0.27744533  -0.26762579  -0.26088796
  -0.23905112  -0.23837726  -0.22471407  -0.20349228  -0.18948286
  -0.17816162  -0.13941589  -0.09660426  -0.02506946   0.01310049
   0.04336239   0.07848248   0.10636781   0.11700821   0.13718405
   0.163296     0.21384595   0.23294341   0.25035321   0.26600804
   0.2665366    0.28134898   0.29727198   0.30257629   0.31859367
   0.3421486    0.34602379   0.36333457   0.38169467   0.39453365
   0.41413672   0.43461875   0.44064453   0.47219075   0.48173656
   0.50375225   0.52485874   0.55455874   0.56950845   0.57207701
   0.59027177   0.59914785   0.61839828   0.63569809   0.64625224
   0.67215463   0.68990054   0.69924987   0.71105471   0.7227201
   0.73201036   0.75123611   0.75660379   0.78594871   0.81511474
   0.86837691   0.90367545   0.91553341   0.95480392]
nelec by numeric integration = 146.00000109689327
    CPU time for vxc     37.85 sec, wall time     15.73 sec
E1 = -4094.2174276376973  Ecoul = 1892.0643829828111  Exc = -124.64433025200562
cycle= 8 E= -835.643095138057  delta_E= -8.4e-06  |g|= 0.00147  |ddm|= 0.00895
    CPU time for cycle= 8     38.24 sec, wall time     15.79 sec
  HOMO = -0.0965884086398448  LUMO = -0.0250146898098461
  mo_energy =
[-10.0313789  -10.02890258 -10.02790146 -10.026944   -10.02480299
 -10.02173449 -10.01996563 -10.01892412 -10.01665989 -10.01598022
 -10.01575487 -10.01421598 -10.01385698 -10.01369827 -10.01221099
 -10.01029773 -10.00885777 -10.00458826 -10.00158907  -9.99320248
  -9.9922474   -9.99115924  -0.85155681  -0.8450541   -0.81263098
  -0.79241323  -0.76775712  -0.74966998  -0.7349175   -0.71427131
  -0.70272425  -0.66573792  -0.63674962  -0.6226154   -0.60175979
  -0.59737556  -0.57731498  -0.5625709   -0.53749976  -0.53351344
  -0.50231131  -0.49522631  -0.48059406  -0.45975391  -0.44629815
  -0.43715398  -0.43331502  -0.4177846   -0.40556878  -0.39852978
  -0.38557651  -0.38436668  -0.36981325  -0.36557492  -0.35459891
  -0.3483115   -0.33915626  -0.32886804  -0.31440712  -0.31086277
  -0.29313398  -0.28294923  -0.27743248  -0.26769903  -0.26092246
  -0.23908921  -0.23833962  -0.22471483  -0.20351266  -0.1894575
  -0.17817946  -0.13943093  -0.09658841  -0.02501469   0.01310203
   0.04334311   0.07844686   0.10639591   0.11697544   0.13714437
   0.16326901   0.2138389    0.23297433   0.25040812   0.26605724
   0.26650428   0.28134381   0.29723926   0.30255382   0.31854311
   0.3421847    0.34600852   0.36335548   0.38167054   0.3945357
   0.4141257    0.4346087    0.44066858   0.47217091   0.4816347
   0.50375266   0.52483051   0.55449279   0.56947995   0.57203113
   0.590284     0.59915557   0.61839723   0.63572139   0.64623282
   0.67213437   0.68987642   0.69919224   0.71100928   0.72269345
   0.73198155   0.75124744   0.75657455   0.78590877   0.81505596
   0.86834857   0.90362058   0.91546456   0.95476055]
nelec by numeric integration = 146.000001096998
    CPU time for vxc     38.02 sec, wall time     15.71 sec
E1 = -4094.2206125090224  Ecoul = 1892.0676504901994  Exc = -124.64441355666148
cycle= 9 E= -835.64309580665  delta_E= -6.69e-07  |g|= 0.000702  |ddm|= 0.00314
    CPU time for cycle= 9     38.44 sec, wall time     15.78 sec
  HOMO = -0.0966179845701132  LUMO = -0.0250302619305112
  mo_energy =
[-10.03139627 -10.02886728 -10.02793141 -10.02695106 -10.02488574
 -10.02169175 -10.0199714  -10.01894552 -10.01666031 -10.01608952
 -10.01570953 -10.01420743 -10.01387721 -10.01364961 -10.01242497
 -10.01019762 -10.00880966 -10.00467125 -10.00156555  -9.9932884
  -9.99228233  -9.99121362  -0.85157894  -0.84507463  -0.81263586
  -0.79242574  -0.76777451  -0.74967365  -0.73493435  -0.71428215
  -0.70273411  -0.66575342  -0.63677228  -0.62262266  -0.60177744
  -0.597385    -0.57732286  -0.56259569  -0.53750814  -0.53353222
  -0.50231921  -0.49524178  -0.48059965  -0.45976717  -0.44631569
  -0.43717239  -0.43333828  -0.41779104  -0.40556966  -0.39854198
  -0.38558247  -0.38436911  -0.36981778  -0.36559417  -0.35461512
  -0.34832077  -0.33917002  -0.32887022  -0.31441112  -0.31087039
  -0.29315041  -0.28296431  -0.27743647  -0.26769297  -0.26093031
  -0.23908923  -0.23834663  -0.22473461  -0.20352437  -0.18947118
  -0.17819043  -0.13945382  -0.09661798  -0.02503026   0.01308019
   0.04333402   0.07843779   0.10637616   0.11697247   0.13713833
   0.16326135   0.21383756   0.23297244   0.25043261   0.26600941
   0.26649566   0.28133012   0.29723512   0.30254631   0.31854745
   0.3421605    0.34599259   0.36335125   0.38169101   0.39451558
   0.41411528   0.43458179   0.44064478   0.47214985   0.48166043
   0.50373679   0.52481715   0.55448823   0.56945425   0.57201597
   0.59026478   0.59913334   0.61837598   0.63569325   0.64622301
   0.6721208    0.68986549   0.69918627   0.71100376   0.72268389
   0.73197527   0.75120731   0.7565565    0.78589178   0.81504018
   0.86833047   0.90361059   0.9154532    0.9547578 ]
nelec by numeric integration = 146.0000010970824
    CPU time for vxc     38.21 sec, wall time     15.72 sec
E1 = -4094.221805013664  Ecoul = 1892.0688802297268  Exc = -124.64445098101449
cycle= 10 E= -835.643095996117  delta_E= -1.89e-07  |g|= 0.000177  |ddm|= 0.0013
    CPU time for cycle= 10     38.76 sec, wall time     15.81 sec
  HOMO = -0.0966255712706959  LUMO = -0.0250349117378389
  mo_energy =
[-10.03138765 -10.02889281 -10.02793132 -10.02693069 -10.02485867
 -10.02169699 -10.0199476  -10.01894667 -10.01670063 -10.01607145
 -10.01576015 -10.01424506 -10.01391948 -10.01366839 -10.01241644
 -10.0101868  -10.00877279 -10.00465207 -10.00159826  -9.9933278
  -9.99229929  -9.99122272  -0.85157919  -0.84506976  -0.81264897
  -0.79243201  -0.76777509  -0.74967641  -0.73493603  -0.7142889
  -0.7027396   -0.66576115  -0.63677285  -0.62262973  -0.60177506
  -0.59739173  -0.57732396  -0.56259659  -0.53751459  -0.53353519
  -0.50232397  -0.49524147  -0.48060605  -0.45977254  -0.44631871
  -0.43716851  -0.43333692  -0.41779838  -0.40557509  -0.3985464
  -0.38558313  -0.38436379  -0.36981954  -0.36559707  -0.35461845
  -0.34832431  -0.33916994  -0.32888307  -0.31441702  -0.31088
  -0.29315795  -0.28297455  -0.27744652  -0.2676863   -0.26093465
  -0.23909509  -0.23836019  -0.22473714  -0.20353112  -0.18947658
  -0.17819799  -0.1394604   -0.09662557  -0.02503491   0.01307535
   0.04332744   0.07843187   0.10636807   0.11696341   0.13713587
   0.16325785   0.21382737   0.23296269   0.2504115    0.26600211
   0.26649637   0.28132575   0.29722899   0.30254145   0.3185475
   0.34215364   0.345991     0.36335021   0.38167483   0.39451188
   0.41411155   0.4345811    0.4406503    0.47214767   0.48165332
   0.50373068   0.52481458   0.55448654   0.56945339   0.57201693
   0.59026479   0.59913514   0.61836658   0.63569333   0.64621242
   0.67211222   0.68985397   0.69918078   0.71099261   0.72267638
   0.73196369   0.75121436   0.75656042   0.78588671   0.81504003
   0.86833985   0.90361898   0.91545086   0.95474779]
nelec by numeric integration = 146.00000109706352
    CPU time for vxc     37.95 sec, wall time     15.69 sec
E1 = -4094.2219552515753  Ecoul = 1892.0690394510598  Exc = -124.644459972721
cycle= 11 E= -835.643096004402  delta_E= -8.29e-09  |g|= 0.000112  |ddm|= 0.000421
    CPU time for cycle= 11     38.47 sec, wall time     15.77 sec
  HOMO = -0.096621766850683  LUMO = -0.025029013025713
  mo_energy =
[-10.03139581 -10.02889097 -10.02793365 -10.02693812 -10.0248661
 -10.02169921 -10.01995771 -10.01894613 -10.01668015 -10.01607598
 -10.01573265 -10.01423133 -10.01390417 -10.01364063 -10.01241078
 -10.0101938  -10.00878499 -10.00464966 -10.00158702  -9.99330781
  -9.99228777  -9.99121457  -0.85157789  -0.84507123  -0.81264311
  -0.79242852  -0.76777428  -0.74967377  -0.73493429  -0.71428428
  -0.70273446  -0.66575778  -0.63677101  -0.62262486  -0.60177429
  -0.59738869  -0.57732245  -0.562594    -0.53751162  -0.5335324
  -0.50232182  -0.49524019  -0.4806026   -0.45976924  -0.4463174
  -0.43716656  -0.43333511  -0.41779324  -0.40557235  -0.39854395
  -0.38558216  -0.38436548  -0.36981812  -0.36559423  -0.35461584
  -0.34832221  -0.33916889  -0.32887592  -0.31441265  -0.31087565
  -0.29315413  -0.28297052  -0.27744421  -0.26768894  -0.26093189
  -0.23909224  -0.23835522  -0.22473469  -0.20352665  -0.18947294
  -0.17819289  -0.13945663  -0.09662177  -0.02502901   0.01307957
   0.04333221   0.0784358    0.10637314   0.11696634   0.13713881
   0.16326077   0.21383149   0.23296528   0.25041348   0.26600746
   0.26649608   0.28132875   0.29723165   0.30254437   0.31854781
   0.34215828   0.34599317   0.3633517    0.38168245   0.39451419
   0.41411548   0.43458431   0.44065096   0.47215018   0.48165824
   0.50373566   0.52481672   0.5544899    0.56945498   0.57201895
   0.59026756   0.59913683   0.61837087   0.63569563   0.64622034
   0.6721203    0.68985803   0.69918581   0.71099608   0.7226795
   0.7319672    0.75121292   0.75656063   0.78589039   0.81504008
   0.86833759   0.90361684   0.91545113   0.9547499 ]
nelec by numeric integration = 146.0000010970767
    CPU time for vxc     38.13 sec, wall time     15.79 sec
E1 = -4094.221724846348  Ecoul = 1892.068801895768  Exc = -124.6444528270828
cycle= 12 E= -835.643096008828  delta_E= -4.43e-09  |g|= 3.24e-05  |ddm|= 0.0002
    CPU time for cycle= 12     38.54 sec, wall time     15.86 sec
  HOMO = -0.0966207858745902  LUMO = -0.025027431620285
  mo_energy =
[-10.03138999 -10.02888364 -10.02792877 -10.02693572 -10.02486654
 -10.02169218 -10.01995467 -10.0189432  -10.01668152 -10.01607255
 -10.01573576 -10.01422476 -10.01389903 -10.01365079 -10.01241088
 -10.01018967 -10.00878437 -10.00464699 -10.00157918  -9.99331047
  -9.99228494  -9.99121346  -0.85157595  -0.84506866  -0.81264124
  -0.79242686  -0.76777235  -0.74967255  -0.73493198  -0.71428307
  -0.70273442  -0.66575588  -0.63677     -0.62262338  -0.60177275
  -0.59738635  -0.5773212   -0.56259403  -0.53751015  -0.53353195
  -0.50232021  -0.49523918  -0.48060124  -0.4597682   -0.44631599
  -0.43716601  -0.43333452  -0.41779359  -0.40557062  -0.39854214
  -0.38558101  -0.38436392  -0.3698162   -0.36559311  -0.35461408
  -0.34832057  -0.33916712  -0.3288766   -0.31441235  -0.31087372
  -0.29315291  -0.28296954  -0.27744241  -0.2676876   -0.26093073
  -0.23909006  -0.23835445  -0.22473262  -0.20352572  -0.18947071
  -0.17819221  -0.1394551   -0.09662079  -0.02502743   0.013081
   0.04333337   0.07843727   0.10637398   0.11696898   0.13713963
   0.16326185   0.2138336    0.23296829   0.25041657   0.26600765
   0.26649788   0.28132988   0.29723353   0.30254546   0.31854865
   0.34215733   0.34599391   0.36335302   0.38168278   0.39451563
   0.41411519   0.43458525   0.44065285   0.47215079   0.48165719
   0.5037356    0.52481866   0.55449048   0.56945634   0.57201983
   0.59026859   0.59913813   0.61837224   0.63569687   0.64621958
   0.67211931   0.68986024   0.69918585   0.71099966   0.72268191
   0.73197065   0.75121503   0.7565622    0.78589125   0.815043
   0.86833927   0.90361915   0.91545432   0.95475367]
nelec by numeric integration = 146.0000010970818
    CPU time for vxc     37.65 sec, wall time     15.66 sec
E1 = -4094.22158477795  Ecoul = 1892.0686582440485  Exc = -124.64444924404555
cycle= 13 E= -835.643096009112  delta_E= -2.84e-10  |g|= 1.98e-05  |ddm|= 7.8e-05
    CPU time for cycle= 13     38.10 sec, wall time     15.73 sec
  HOMO = -0.0966215836786122  LUMO = -0.0250282716047467
  mo_energy =
[-10.0313914  -10.02888477 -10.0279307  -10.02693734 -10.02486608
 -10.02169527 -10.01995416 -10.01894553 -10.01668193 -10.01607446
 -10.01573535 -10.01422648 -10.01390147 -10.01364836 -10.0124132
 -10.01019141 -10.00878692 -10.00464813 -10.00158402  -9.99331026
  -9.99228606  -9.99121277  -0.85157708  -0.84506996  -0.81264225
  -0.79242769  -0.76777347  -0.74967319  -0.73493321  -0.71428382
  -0.70273499  -0.66575669  -0.63677082  -0.6226241   -0.6017737
  -0.59738744  -0.57732194  -0.56259438  -0.5375106   -0.53353249
  -0.50232097  -0.49523996  -0.48060193  -0.45976889  -0.4463168
  -0.43716642  -0.43333509  -0.41779379  -0.40557139  -0.39854297
  -0.38558157  -0.38436478  -0.36981728  -0.36559392  -0.35461513
  -0.34832137  -0.339168    -0.32887655  -0.31441275  -0.31087463
  -0.29315353  -0.28296997  -0.27744297  -0.26768818  -0.26093137
  -0.2390908   -0.23835471  -0.22473376  -0.2035263   -0.1894715
  -0.17819285  -0.13945573  -0.09662158  -0.02502827   0.01308041
   0.04333265   0.07843643   0.1063732    0.11696825   0.13713911
   0.16326098   0.21383261   0.23296742   0.2504163    0.26600707
   0.26649709   0.2813294    0.29723278   0.30254502   0.31854828
   0.34215726   0.3459936    0.36335239   0.38168251   0.3945152
   0.41411525   0.43458438   0.44065208   0.47215011   0.48165761
   0.50373524   0.52481764   0.55448987   0.56945534   0.57201884
   0.59026798   0.59913719   0.61837186   0.63569597   0.64621914
   0.67211922   0.68985937   0.69918542   0.71099805   0.72268049
   0.73196936   0.75121376   0.75656086   0.78589032   0.8150415
   0.86833794   0.90361774   0.91545296   0.95475247]
nelec by numeric integration = 146.0000010970808
    CPU time for vxc     38.42 sec, wall time     15.93 sec
E1 = -4094.221704299397  Ecoul = 1892.068780517176  Exc = -124.64445199583022
cycle= 14 E= -835.643096009216  delta_E= -1.04e-10  |g|= 1e-05  |ddm|= 3.77e-05
    CPU time for cycle= 14     38.78 sec, wall time     15.99 sec
  HOMO = -0.0966216013381813  LUMO = -0.0250282019875709
  mo_energy =
[-10.03139193 -10.02888637 -10.02793022 -10.02693672 -10.02486537
 -10.02169498 -10.01995486 -10.01894488 -10.01668175 -10.01607474
 -10.01573531 -10.01422731 -10.01390248 -10.01364811 -10.01241281
 -10.01019206 -10.0087868  -10.00464864 -10.00158346  -9.99331011
  -9.99228606  -9.99121408  -0.85157698  -0.84507002  -0.8126424
  -0.79242805  -0.76777362  -0.74967328  -0.73493295  -0.71428388
  -0.70273501  -0.66575689  -0.63677092  -0.6226241   -0.60177348
  -0.59738754  -0.57732208  -0.56259442  -0.53751093  -0.5335325
  -0.50232113  -0.49524013  -0.48060207  -0.45976903  -0.44631658
  -0.43716634  -0.43333501  -0.41779366  -0.40557141  -0.39854315
  -0.38558173  -0.38436495  -0.36981716  -0.36559384  -0.35461504
  -0.3483215   -0.33916812  -0.32887641  -0.31441275  -0.3108747
  -0.29315357  -0.2829699   -0.27744301  -0.26768842  -0.26093163
  -0.23909099  -0.23835454  -0.22473347  -0.20352636  -0.18947166
  -0.17819288  -0.1394559   -0.0966216   -0.0250282    0.01308021
   0.04333254   0.07843655   0.1063734    0.11696772   0.13713891
   0.16326088   0.21383273   0.23296746   0.2504166    0.26600722
   0.26649699   0.28132934   0.29723269   0.30254492   0.31854804
   0.34215736   0.34599353   0.36335259   0.38168267   0.39451495
   0.41411531   0.43458422   0.44065234   0.47214997   0.48165754
   0.50373535   0.52481787   0.55448986   0.56945555   0.57201868
   0.59026792   0.59913707   0.6183713    0.63569588   0.64621924
   0.67211927   0.68985875   0.6991854    0.71099795   0.72268064
   0.73196899   0.75121359   0.75656073   0.78589068   0.81504183
   0.86833777   0.90361748   0.91545295   0.95475193]
nelec by numeric integration = 146.00000109708103
    CPU time for vxc     38.34 sec, wall time     15.83 sec
E1 = -4094.2216798335785  Ecoul = 1892.068756501859  Exc = -124.64445244635556
cycle= 15 E= -835.64309600924  delta_E= -2.41e-11  |g|= 5.91e-06  |ddm|= 2.01e-05
    CPU time for cycle= 15     38.76 sec, wall time     15.90 sec
  HOMO = -0.0966215601886354  LUMO = -0.0250281524756576
  mo_energy =
[-10.03139236 -10.02888508 -10.02793146 -10.02693673 -10.02486729
 -10.0216955  -10.01995577 -10.01894585 -10.01668188 -10.01607521
 -10.0157354  -10.0142273  -10.01390056 -10.01364803 -10.01241345
 -10.01019157 -10.00878579 -10.00464765 -10.00158145  -9.99331172
  -9.99228708  -9.99121299  -0.85157731  -0.84507029  -0.8126422
  -0.79242772  -0.76777352  -0.74967329  -0.73493341  -0.71428415
  -0.70273515  -0.66575673  -0.63677104  -0.62262392  -0.60177379
  -0.59738764  -0.57732202  -0.56259467  -0.53751054  -0.53353276
  -0.50232098  -0.49524013  -0.48060185  -0.4597691   -0.44631687
  -0.4371664   -0.43333519  -0.41779401  -0.40557148  -0.39854311
  -0.3855818   -0.38436495  -0.36981728  -0.36559411  -0.35461521
  -0.34832153  -0.33916821  -0.32887675  -0.31441289  -0.31087466
  -0.29315362  -0.28297009  -0.27744289  -0.26768854  -0.26093149
  -0.23909088  -0.23835469  -0.22473389  -0.20352669  -0.18947153
  -0.17819305  -0.13945588  -0.09662156  -0.02502815   0.01308027
   0.04333247   0.07843606   0.10637306   0.11696823   0.13713894
   0.16326095   0.21383266   0.23296755   0.25041678   0.26600661
   0.2664968    0.28132926   0.29723263   0.30254483   0.31854815
   0.34215688   0.3459932    0.36335214   0.38168274   0.39451514
   0.41411504   0.43458409   0.44065204   0.47214971   0.48165734
   0.5037351    0.52481737   0.55448965   0.56945515   0.57201862
   0.59026789   0.59913711   0.61837183   0.63569588   0.64621912
   0.67211897   0.68985959   0.69918531   0.71099792   0.72268066
   0.73196942   0.75121337   0.75656072   0.78589034   0.81504153
   0.86833773   0.90361748   0.91545274   0.9547524 ]
nelec by numeric integration = 146.0000010970808
    CPU time for vxc     38.07 sec, wall time     15.76 sec
E1 = -4094.221724203384  Ecoul = 1892.0688006386924  Exc = -124.6444522132879
Extra cycle  E= -835.643096009145  delta_E= 9.6e-11  |g|= 1.73e-05  |ddm|= 3.48e-05
    CPU time for scf_cycle    663.17 sec, wall time    270.98 sec
    CPU time for SCF    663.17 sec, wall time    270.98 sec
converged SCF energy = -835.643096009145
nelec by numeric integration = 146.0000010970808
    CPU time for vxc     38.07 sec, wall time     15.68 sec
 ** Mulliken pop  **
pop of  0 C 1s            1.99101
pop of  0 C 2s            1.17972
pop of  0 C 2px           0.95978
pop of  0 C 2py           0.93439
pop of  0 C 2pz           0.91346
pop of  1 C 1s            1.99046
pop of  1 C 2s            1.09003
pop of  1 C 2px           0.99806
pop of  1 C 2py           0.97990
pop of  1 C 2pz           0.96150
pop of  2 C 1s            1.99105
pop of  2 C 2s            1.15216
pop of  2 C 2px           0.99447
pop of  2 C 2py           0.94769
pop of  2 C 2pz           0.97861
pop of  3 C 1s            1.99079
pop of  3 C 2s            1.16353
pop of  3 C 2px           0.99972
pop of  3 C 2py           0.94552
pop of  3 C 2pz           0.98460
pop of  4 C 1s            1.99057
pop of  4 C 2s            1.10813
pop of  4 C 2px           0.98606
pop of  4 C 2py           0.97072
pop of  4 C 2pz           1.02310
pop of  5 C 1s            1.99100
pop of  5 C 2s            1.13221
pop of  5 C 2px           0.98921
pop of  5 C 2py           0.96165
pop of  5 C 2pz           1.02063
pop of  6 C 1s            1.99055
pop of  6 C 2s            1.11564
pop of  6 C 2px           1.00611
pop of  6 C 2py           1.01100
pop of  6 C 2pz           0.96705
pop of  7 C 1s            1.99056
pop of  7 C 2s            1.07982
pop of  7 C 2px           0.99779
pop of  7 C 2py           1.05177
pop of  7 C 2pz           1.00554
pop of  8 C 1s            1.99083
pop of  8 C 2s            1.17601
pop of  8 C 2px           0.97303
pop of  8 C 2py           0.93886
pop of  8 C 2pz           0.93568
pop of  9 C 1s            1.99093
pop of  9 C 2s            1.17921
pop of  9 C 2px           0.96382
pop of  9 C 2py           0.93623
pop of  9 C 2pz           0.93755
pop of  10 C 1s           1.99175
pop of  10 C 2s           1.21158
pop of  10 C 2px          0.95766
pop of  10 C 2py          0.92092
pop of  10 C 2pz          0.93036
pop of  11 C 1s           1.99163
pop of  11 C 2s           1.23106
pop of  11 C 2px          0.98253
pop of  11 C 2py          0.90177
pop of  11 C 2pz          0.94483
pop of  12 C 1s           1.99028
pop of  12 C 2s           1.08906
pop of  12 C 2px          1.01445
pop of  12 C 2py          0.97046
pop of  12 C 2pz          0.97673
pop of  13 C 1s           1.99084
pop of  13 C 2s           1.13692
pop of  13 C 2px          0.97378
pop of  13 C 2py          0.94788
pop of  13 C 2pz          0.94172
pop of  14 C 1s           1.99157
pop of  14 C 2s           1.22761
pop of  14 C 2px          0.93464
pop of  14 C 2py          0.94096
pop of  14 C 2pz          0.96487
pop of  15 C 1s           1.99052
pop of  15 C 2s           1.08431
pop of  15 C 2px          1.03659
pop of  15 C 2py          0.97703
pop of  15 C 2pz          1.05319
pop of  16 C 1s           1.99121
pop of  16 C 2s           1.11276
pop of  16 C 2px          0.98877
pop of  16 C 2py          0.94412
pop of  16 C 2pz          0.96390
pop of  17 C 1s           1.99070
pop of  17 C 2s           1.09247
pop of  17 C 2px          1.01637
pop of  17 C 2py          0.93425
pop of  17 C 2pz          0.97376
pop of  18 C 1s           1.99192
pop of  18 C 2s           1.27393
pop of  18 C 2px          0.95285
pop of  18 C 2py          0.92137
pop of  18 C 2pz          0.91989
pop of  19 C 1s           1.99102
pop of  19 C 2s           1.12098
pop of  19 C 2px          0.98299
pop of  19 C 2py          0.95522
pop of  19 C 2pz          1.03566
pop of  20 C 1s           1.99198
pop of  20 C 2s           1.26008
pop of  20 C 2px          0.91387
pop of  20 C 2py          0.96526
pop of  20 C 2pz          0.91057
pop of  21 C 1s           1.99081
pop of  21 C 2s           1.06856
pop of  21 C 2px          1.04767
pop of  21 C 2py          1.07544
pop of  21 C 2pz          1.01425
pop of  22 H 1s           0.92623
pop of  23 H 1s           0.91533
pop of  24 H 1s           0.90805
pop of  25 H 1s           0.89045
pop of  26 H 1s           0.89687
pop of  27 H 1s           0.89459
pop of  28 H 1s           0.98626
pop of  29 H 1s           0.94460
pop of  30 H 1s           0.90029
pop of  31 H 1s           0.88036
pop of  32 H 1s           0.92999
pop of  33 H 1s           0.89270
pop of  34 H 1s           0.92369
pop of  35 H 1s           0.86272
 ** Mulliken atomic charges  **
charge of    0C =      0.02163
charge of    1C =     -0.01995
charge of    2C =     -0.06398
charge of    3C =     -0.08417
charge of    4C =     -0.07858
charge of    5C =     -0.09470
charge of    6C =     -0.09035
charge of    7C =     -0.12549
charge of    8C =     -0.01442
charge of    9C =     -0.00774
charge of   10C =     -0.01227
charge of   11C =     -0.05183
charge of   12C =     -0.04098
charge of   13C =      0.00887
charge of   14C =     -0.05965
charge of   15C =     -0.14165
charge of   16C =     -0.00075
charge of   17C =     -0.00756
charge of   18C =     -0.05995
charge of   19C =     -0.08587
charge of   20C =     -0.04176
charge of   21C =     -0.19674
charge of   22H =      0.07377
charge of   23H =      0.08467
charge of   24H =      0.09195
charge of   25H =      0.10955
charge of   26H =      0.10313
charge of   27H =      0.10541
charge of   28H =      0.01374
charge of   29H =      0.05540
charge of   30H =      0.09971
charge of   31H =      0.11964
charge of   32H =      0.07001
charge of   33H =      0.10730
charge of   34H =      0.07631
charge of   35H =      0.13728
Dipole moment(X, Y, Z, Debye): -0.41547,  0.55479,  0.56378
nelec by numeric integration = 146.0000010970808
    CPU time for vxc     37.43 sec, wall time     15.73 sec
E1 = -4094.221724203384  Ecoul = 1892.0688006386915  Exc = -124.6444522132879
nelec by numeric integration = 146.0000010970808
    CPU time for vxc     38.12 sec, wall time     15.76 sec
E1 = -4094.221724203384  Ecoul = 1892.0688006386927  Exc = -124.6444522132879
