System: uname_result(system='Linux', node='cosmopc18', release='5.15.0-97-generic', version='#107-Ubuntu SMP Wed Feb 7 13:26:48 UTC 2024', machine='x86_64')  Threads 4
Python 3.11.8 (main, Feb 26 2024, 21:39:34) [GCC 11.2.0]
numpy 1.26.4  scipy 1.11.4
Date: Tue Apr  9 12:21:38 2024
PySCF version 2.3.0
PySCF path  /home/saade/miniconda3/envs/tutorial/lib/python3.11/site-packages/pyscf

[ENV] PYSCFAD_BACKEND torch
[CONFIG] conf_file None
[INPUT] verbose = 5
[INPUT] max_memory = 4000 
[INPUT] num. atoms = 36
[INPUT] num. electrons = 146
[INPUT] charge = 0
[INPUT] spin (= nelec alpha-beta = 2S) = 0
[INPUT] symmetry False subgroup None
[INPUT] Mole.unit = angstrom
[INPUT] Symbol           X                Y                Z      unit          X                Y                Z       unit  Magmom
[INPUT]  1 C     -0.026809000000   3.621484000000   0.844153000000 AA   -0.050661667673   6.843612924494   1.595217977230 Bohr   0.0
[INPUT]  2 C     -0.170157000000   3.570100000000  -0.830313000000 AA   -0.321550128178   6.746511237310  -1.569064167666 Bohr   0.0
[INPUT]  3 C     -0.053903000000   4.937689000000   1.405008000000 AA   -0.101861907292   9.330879898278   2.655080322823 Bohr   0.0
[INPUT]  4 C     -0.162217000000   2.521741000000   1.301015000000 AA   -0.306545702749   4.765399847087   2.458562033951 Bohr   0.0
[INPUT]  5 C      0.030161000000   4.732836000000  -1.295438000000 AA    0.056996029643   8.943763832482  -2.448023031354 Bohr   0.0
[INPUT]  6 C     -0.127873000000   2.331498000000  -1.427268000000 AA   -0.241644948727   4.405892679971  -2.697145626356 Bohr   0.0
[INPUT]  7 C      0.124462000000   5.998849000000  -0.837824000000 AA    0.235199092916  11.336181672621  -1.583257900588 Bohr   0.0
[INPUT]  8 C      0.036594000000   6.084414000000   0.680792000000 AA    0.069152637802  11.497876088469   1.286510427795 Bohr   0.0
[INPUT]  9 C      0.024420000000   1.154709000000   0.835554000000 AA    0.046147111962   2.182083763570   1.578968222285 Bohr   0.0
[INPUT] 10 C     -0.004196000000   1.262674000000  -0.734848000000 AA   -0.007929290819   2.386108044609  -1.388661463184 Bohr   0.0
[INPUT] 11 C      0.134067000000  -0.160077000000   1.360776000000 AA    0.253349912342  -0.302501688842   2.571493956881 Bohr   0.0
[INPUT] 12 C      0.090289000000  -0.075443000000  -1.394913000000 AA    0.170621482061  -0.142566608016  -2.636003537595 Bohr   0.0
[INPUT] 13 C     -0.088201000000  -1.134558000000   0.936793000000 AA   -0.166675733913  -2.144003892434   1.770282205410 Bohr   0.0
[INPUT] 14 C      0.047099000000  -1.345234000000  -0.753920000000 AA    0.089004210741  -2.542123833453  -1.424702319832 Bohr   0.0
[INPUT] 15 C      0.016751000000  -2.531577000000   1.464566000000 AA    0.031654802313  -4.783987193248   2.767628631350 Bohr   0.0
[INPUT] 16 C      0.072260000000  -2.687666000000  -1.489189000000 AA    0.136551609761  -5.078952654305  -2.814159357715 Bohr   0.0
[INPUT] 17 C      0.012987000000  -3.758029000000   0.654904000000 AA    0.024541873180  -7.101645578173   1.237589197882 Bohr   0.0
[INPUT] 18 C      0.079565000000  -3.648525000000  -0.711281000000 AA    0.150356059101  -6.894713008629  -1.344126287607 Bohr   0.0
[INPUT] 19 C     -0.074517000000  -5.092596000000   1.529696000000 AA   -0.140816721624  -9.623611703056   2.890706493843 Bohr   0.0
[INPUT] 20 C     -0.033129000000  -4.911539000000  -1.469072000000 AA   -0.062604736781  -9.281463560120  -2.776143737267 Bohr   0.0
[INPUT] 21 C      0.015535000000  -6.086964000000   0.682034000000 AA    0.029356895345 -11.502694890087   1.288857467642 Bohr   0.0
[INPUT] 22 C      0.039840000000  -6.078949000000  -0.717630000000 AA    0.075286688803 -11.487548735199  -1.356124158772 Bohr   0.0
[INPUT] 23 H      0.081546000000   5.015312000000   2.472385000000 AA    0.154099606554   9.477566109245   4.672130524483 Bohr   0.0
[INPUT] 24 H      0.110495000000   2.418383000000   2.437068000000 AA    0.208805288134   4.570081534304   4.605391066942 Bohr   0.0
[INPUT] 25 H     -0.022457000000   4.901535000000  -2.496467000000 AA   -0.042437579579   9.262558739970  -4.717638909015 Bohr   0.0
[INPUT] 26 H      0.020100000000   2.477743000000  -2.473905000000 AA    0.037983495104   4.682255677058  -4.675002908192 Bohr   0.0
[INPUT] 27 H     -0.245231000000   7.052323000000  -1.390420000000 AA   -0.463419427253  13.326959011971  -2.627512998118 Bohr   0.0
[INPUT] 28 H      0.100839000000   6.901714000000   1.244514000000 AA    0.190558092675  13.042349250076   2.351790618187 Bohr   0.0
[INPUT] 29 H      0.194474000000  -0.019532000000   2.279494000000 AA    0.367502598349  -0.036910130665   4.307619362589 Bohr   0.0
[INPUT] 30 H      0.038566000000  -0.118983000000  -2.403406000000 AA    0.072879177720  -0.224845283479  -4.541779106136 Bohr   0.0
[INPUT] 31 H     -0.033396000000  -2.302994000000   2.624947000000 AA   -0.063109293656  -4.352027926517   4.960430921499 Bohr   0.0
[INPUT] 32 H     -0.039460000000  -2.308604000000  -2.405304000000 AA   -0.074568592875  -4.362629290075  -4.545365806321 Bohr   0.0
[INPUT] 33 H      0.290791000000  -4.721145000000   2.621468000000 AA    0.549515349488  -8.921671044360   4.953856564311 Bohr   0.0
[INPUT] 34 H      0.117958000000  -4.888330000000  -2.530937000000 AA    0.222908314201  -9.237604906495  -4.782777768528 Bohr   0.0
[INPUT] 35 H      0.151861000000  -7.119691000000   1.258346000000 AA    0.286975699003 -13.454266081531   2.377929309942 Bohr   0.0
[INPUT] 36 H     -0.086218000000  -6.824191000000  -1.448137000000 AA   -0.162928407008 -12.895852011722  -2.736582320849 Bohr   0.0
[INPUT] ---------------- BASIS SET ---------------- 
[INPUT] l, kappa, [nprim/nctr], expnt,             c_1 c_2 ...
[INPUT] H
[INPUT] 0    0    [3    /1   ]  3.42525091        0.15432897
                                0.62391373        0.53532814
                                0.1688554         0.44463454
[INPUT] C
[INPUT] 0    0    [3    /1   ]  71.616837         0.15432897
                                13.045096         0.53532814
                                3.5305122         0.44463454
[INPUT] 0    0    [3    /1   ]  2.9412494         -0.09996723
                                0.6834831         0.39951283
                                0.2222899         0.70011547
[INPUT] 1    0    [3    /1   ]  2.9412494         0.15591627
                                0.6834831         0.60768372
                                0.2222899         0.39195739

nuclear repulsion = 1494.59121332576
number of shells = 80
number of NR pGTOs = 372
number of NR cGTOs = 124
basis = sto3g
ecp = {}
CPU time:     23414.59
atom C rad-grids = 99, ang-grids = [ 50  50  50  50  50  50  50  50  50  50  50  50  50  50  50  50  50  50
  50  50  50  50  50  50  50  50  50  50  50  50  50  86  86  86  86  86
  86  86  86  86  86  86  86 434 434 434 434 434 434 434 434 434 590 590
 590 590 590 590 590 590 590 590 590 590 590 590 590 590 590 590 590 590
 590 590 590 590 590 590 590 434 434 434 434 434 434 434 434 434 434 434
 434 434 434 434 434 434 434 434 434]
atom H rad-grids = 99, ang-grids = [ 50  50  50  50  50  50  50  50  50  50  50  50  50  50  50  50  50  50
  50  50  50  50  50  50  50  50  50  50  86  86  86  86  86  86  86 434
 434 434 434 434 434 434 434 590 590 590 590 590 590 590 590 590 590 590
 590 590 590 590 590 590 590 590 590 590 590 590 590 590 590 434 434 434
 434 434 434 434 434 434 434 434 434 434 434 434 434 434 434 434 434 434
 434 434 434 434 434 434 434 434 434]
tot_boxes 5270, boxes in each direction [ 8 29 15]
Padding 0 grids
tot grids = 1157832


******** <class 'pyscf.dft.rks.RKS'> ********
method = RKS
initial guess = minao
damping factor = 0
level_shift factor = 0
DIIS = <class 'pyscf.scf.diis.CDIIS'>
diis_start_cycle = 1
diis_space = 8
SCF conv_tol = 1e-10
SCF conv_tol_grad = None
SCF max_cycles = 50
direct_scf = True
direct_scf_tol = 1e-13
chkfile to save SCF result = /home/saade/mlelec/tutorials/tmpng54jnzs
max_memory 4000 MB (current use 637 MB)
XC library pyscf.dft.libxc version 6.1.0
    S. Lehtola, C. Steigemann, M. J.T. Oliveira, and M. A.L. Marques.,  SoftwareX 7, 1–5 (2018)
XC functionals = b3lypg
    P. J. Stephens, F. J. Devlin, C. F. Chabalowski, and M. J. Frisch.,  J. Phys. Chem. 98, 11623 (1994)
radial grids: 
    Treutler-Ahlrichs [JCP 102, 346 (1995); DOI:10.1063/1.469408] (M4) radial grids
    
becke partition: Becke, JCP 88, 2547 (1988); DOI:10.1063/1.454033
pruning grids: <function nwchem_prune at 0x7f9db5616ca0>
grids dens level: 3
symmetrized grids: False
atomic radii adjust function: <function treutler_atomic_radii_adjust at 0x7f9db5617380>
User specified grid scheme (99, 590)
small_rho_cutoff = 1e-07
Set gradient conv threshold to 1e-05
Initial guess from minao.
nelec by numeric integration = 145.269068294167
    CPU time for vxc     36.62 sec, wall time     15.45 sec
E1 = -4089.123701468339  Ecoul = 1879.1206996691724  Exc = -126.08391279106914
init E= -841.495701264471
cond(S) = 30.875067721118192
    CPU time for initialize scf     46.50 sec, wall time     17.80 sec
  HOMO = -0.220055569000018  LUMO = -0.142424344426183
  mo_energy =
[-10.19480009 -10.15654498 -10.12985345 -10.12655424 -10.12401315
 -10.12300649 -10.11814822 -10.11133999 -10.10854003 -10.1064256
 -10.09940332 -10.09398252 -10.09329688 -10.09154187 -10.08932597
 -10.08866481 -10.08822697 -10.08704784 -10.08022735 -10.07956316
 -10.07741143 -10.07336428  -1.10063205  -1.068809    -1.05081153
  -0.984529    -0.96791552  -0.96026411  -0.90860442  -0.89407805
  -0.86222538  -0.84349813  -0.81394644  -0.75859794  -0.74192973
  -0.69348006  -0.69256803  -0.68172132  -0.656659    -0.64183107
  -0.60617015  -0.59406809  -0.57203951  -0.55860407  -0.55289283
  -0.530619    -0.51463694  -0.50579204  -0.4930114   -0.48192902
  -0.47073757  -0.46418345  -0.46127263  -0.45588832  -0.45159943
  -0.44002103  -0.43464228  -0.42826849  -0.4166316   -0.41598218
  -0.38388874  -0.3701699   -0.36134355  -0.35590847  -0.34706203
  -0.31935609  -0.31391024  -0.29921767  -0.29407704  -0.28147939
  -0.26624471  -0.24689137  -0.22005557  -0.14242434  -0.10886049
  -0.07466723  -0.05162096  -0.02192932   0.01100523   0.03396078
   0.05383486   0.06050365   0.08522563   0.10529883   0.13450529
   0.14734771   0.15428229   0.16276639   0.17144519   0.17888442
   0.19710381   0.21256325   0.24106543   0.24863636   0.25344699
   0.27223691   0.29326553   0.3072706    0.32713279   0.33463127
   0.35004455   0.35525704   0.36705442   0.38794259   0.39520896
   0.41252979   0.4211989    0.4431849    0.45900478   0.48849108
   0.49266563   0.51119311   0.56177414   0.56703475   0.59033172
   0.60889644   0.61938027   0.64234551   0.66803766   0.67720217
   0.77804104   0.82320223   0.83063891   1.00747428]
nelec by numeric integration = 145.99999706454082
    CPU time for vxc     38.20 sec, wall time     15.81 sec
E1 = -4104.716783628085  Ecoul = 1899.2123708535914  Exc = -124.75203292851421
cycle= 1 E= -835.665232377243  delta_E= 5.83  |g|= 0.299  |ddm|= 9.31
    CPU time for cycle= 1     38.62 sec, wall time     15.87 sec
  HOMO = -0.100195256605347  LUMO = 0.0121894230006858
  mo_energy =
[-10.04226266 -10.02739489 -10.02590493 -10.01352243 -10.01043464
 -10.008773    -9.99216467  -9.99114442  -9.98694732  -9.98279005
  -9.98177542  -9.98070244  -9.97785642  -9.97733373  -9.9696364
  -9.96854691  -9.95778045  -9.95612472  -9.94777631  -9.94731133
  -9.93686444  -9.92443409  -0.82386732  -0.80910668  -0.78829742
  -0.75905577  -0.75120605  -0.73349923  -0.71082315  -0.69925567
  -0.6737972   -0.65783144  -0.64025675  -0.59598474  -0.58193249
  -0.56441422  -0.54645028  -0.52850345  -0.51536109  -0.49941503
  -0.47851789  -0.47375962  -0.44973564  -0.44002404  -0.43363678
  -0.42117646  -0.41382643  -0.39362219  -0.39126565  -0.36597549
  -0.35970352  -0.35244625  -0.34869096  -0.34438645  -0.33811635
  -0.32984518  -0.32877494  -0.3205589   -0.30675868  -0.29472642
  -0.27119987  -0.25879564  -0.25730212  -0.24590062  -0.2394724
  -0.22561915  -0.19998422  -0.19348456  -0.18406943  -0.16911175
  -0.1483784   -0.13060716  -0.10019526   0.01218942   0.03694905
   0.07772513   0.09500014   0.13235281   0.17654947   0.18561578
   0.23314985   0.23465453   0.23949296   0.24450671   0.27923458
   0.28703549   0.29975799   0.31075532   0.32025281   0.35068046
   0.35832323   0.36971699   0.37593873   0.38681628   0.39712979
   0.43316593   0.44317358   0.44896394   0.46774964   0.47687551
   0.48325219   0.50613232   0.51165318   0.54002668   0.5516142
   0.57337349   0.58754877   0.60090891   0.62285471   0.65002078
   0.65920347   0.68196478   0.70849902   0.71288185   0.74919034
   0.75731735   0.79667419   0.80867018   0.81619121   0.85518984
   0.95920541   0.9880561    1.02128678   1.24190759]
nelec by numeric integration = 145.99999710052379
    CPU time for vxc     38.66 sec, wall time     15.84 sec
E1 = -4098.881585682126  Ecoul = 1893.217210027005  Exc = -124.59759119469234
cycle= 2 E= -835.670753524048  delta_E= -0.00552  |g|= 0.294  |ddm|= 0.942
    CPU time for cycle= 2     39.15 sec, wall time     15.92 sec
  HOMO = -0.120414075133141  LUMO = -0.00641896280052493
  mo_energy =
[-1.00324010e+01 -1.00302254e+01 -1.00299035e+01 -1.00252286e+01
 -1.00242517e+01 -1.00223853e+01 -1.00221548e+01 -1.00219796e+01
 -1.00209872e+01 -1.00126721e+01 -1.00100288e+01 -1.00098489e+01
 -1.00081835e+01 -1.00080172e+01 -1.00030370e+01 -1.00028883e+01
 -9.99976478e+00 -9.99625902e+00 -9.99596885e+00 -9.98439379e+00
 -9.97651359e+00 -9.96994959e+00 -8.50344894e-01 -8.34636349e-01
 -8.22472678e-01 -7.77107245e-01 -7.69037899e-01 -7.62127331e-01
 -7.21835081e-01 -7.16546967e-01 -6.91546826e-01 -6.75507327e-01
 -6.56085762e-01 -6.12525442e-01 -6.01580783e-01 -5.70462940e-01
 -5.60131297e-01 -5.55755585e-01 -5.35835305e-01 -5.18579905e-01
 -4.91515543e-01 -4.90025703e-01 -4.67427396e-01 -4.52155236e-01
 -4.50853576e-01 -4.40033009e-01 -4.17869728e-01 -4.05686607e-01
 -3.98035013e-01 -3.87274023e-01 -3.73772501e-01 -3.69060084e-01
 -3.67286710e-01 -3.62264566e-01 -3.57888811e-01 -3.44337998e-01
 -3.42711804e-01 -3.33699401e-01 -3.26249838e-01 -3.21270058e-01
 -2.83846998e-01 -2.79314780e-01 -2.71966962e-01 -2.66089803e-01
 -2.54441327e-01 -2.38494352e-01 -2.18809430e-01 -2.04649712e-01
 -2.04003771e-01 -1.94441611e-01 -1.68084408e-01 -1.44866589e-01
 -1.20414075e-01 -6.41896280e-03  2.45464669e-02  6.17016804e-02
  8.32867136e-02  1.20303178e-01  1.58904952e-01  1.69937281e-01
  2.00000135e-01  2.07474686e-01  2.24695531e-01  2.43028197e-01
  2.67103024e-01  2.79919427e-01  2.91088711e-01  2.99167121e-01
  3.08279149e-01  3.19782959e-01  3.36633760e-01  3.52231530e-01
  3.66597767e-01  3.85554461e-01  3.95678384e-01  4.19394111e-01
  4.33141127e-01  4.41224239e-01  4.43442351e-01  4.71450408e-01
  4.80497242e-01  4.88117200e-01  4.95799057e-01  5.21075117e-01
  5.38266087e-01  5.54448022e-01  5.63123691e-01  5.81198784e-01
  5.98669771e-01  6.28402478e-01  6.32837222e-01  6.58427442e-01
  6.99371546e-01  7.01167539e-01  7.34399426e-01  7.42386880e-01
  7.67423527e-01  7.87656528e-01  8.04851117e-01  8.17003094e-01
  9.20962807e-01  9.66835479e-01  9.81552581e-01  1.18143982e+00]
nelec by numeric integration = 145.99999707278994
    CPU time for vxc     38.25 sec, wall time     15.75 sec
E1 = -4101.451956300385  Ecoul = 1895.8028621890167  Exc = -124.63709083014376
cycle= 3 E= -835.694971615747  delta_E= -0.0242  |g|= 0.142  |ddm|= 0.61
    CPU time for cycle= 3     38.72 sec, wall time     15.82 sec
  HOMO = -0.124384734736269  LUMO = -0.00995185540547997
  mo_energy =
[-1.00403536e+01 -1.00382259e+01 -1.00328335e+01 -1.00262841e+01
 -1.00228463e+01 -1.00226210e+01 -1.00194927e+01 -1.00182262e+01
 -1.00160101e+01 -1.00152636e+01 -1.00142063e+01 -1.00138113e+01
 -1.00130722e+01 -1.00125222e+01 -1.00113645e+01 -1.00084371e+01
 -1.00083439e+01 -1.00058369e+01 -1.00049628e+01 -1.00042293e+01
 -9.99810135e+00 -9.98757694e+00 -8.51872146e-01 -8.37082425e-01
 -8.26140007e-01 -7.77027043e-01 -7.74526752e-01 -7.63275083e-01
 -7.24368122e-01 -7.21125927e-01 -6.93842416e-01 -6.78678004e-01
 -6.59923236e-01 -6.16962285e-01 -6.04388029e-01 -5.73491653e-01
 -5.64474263e-01 -5.54582905e-01 -5.37690799e-01 -5.19084342e-01
 -4.94179192e-01 -4.92652130e-01 -4.69025521e-01 -4.55168459e-01
 -4.49895787e-01 -4.41536345e-01 -4.22057678e-01 -4.10332564e-01
 -3.98890498e-01 -3.87183527e-01 -3.74739251e-01 -3.71061567e-01
 -3.70054524e-01 -3.64514656e-01 -3.60392995e-01 -3.47952506e-01
 -3.46888032e-01 -3.39712211e-01 -3.29385197e-01 -3.25441517e-01
 -2.84056110e-01 -2.81813425e-01 -2.76259295e-01 -2.70371536e-01
 -2.59333333e-01 -2.43146135e-01 -2.22724520e-01 -2.10883144e-01
 -2.07923920e-01 -1.93784111e-01 -1.70943788e-01 -1.49226962e-01
 -1.24384735e-01 -9.95185541e-03  2.01742499e-02  5.86749513e-02
  7.82437877e-02  1.14113374e-01  1.54799466e-01  1.64733487e-01
  2.01994100e-01  2.05234092e-01  2.21527720e-01  2.38765987e-01
  2.63441811e-01  2.75038464e-01  2.87663977e-01  2.92555388e-01
  3.07060306e-01  3.19326714e-01  3.39049865e-01  3.51364678e-01
  3.64997690e-01  3.79129834e-01  3.84587531e-01  4.19309547e-01
  4.28818499e-01  4.39821642e-01  4.43017653e-01  4.69475883e-01
  4.76086928e-01  4.83300643e-01  4.94272697e-01  5.21212374e-01
  5.34142301e-01  5.54739651e-01  5.59950752e-01  5.80322568e-01
  5.99374099e-01  6.26003976e-01  6.33143604e-01  6.55818119e-01
  6.94422666e-01  6.96589239e-01  7.29829623e-01  7.36525403e-01
  7.63775068e-01  7.84035482e-01  7.98669783e-01  8.18636447e-01
  9.23338341e-01  9.61911873e-01  9.80735458e-01  1.17566510e+00]
nelec by numeric integration = 145.99999708205036
    CPU time for vxc     38.31 sec, wall time     15.89 sec
E1 = -4101.331126752582  Ecoul = 1895.6863878134004  Exc = -124.64823747892108
cycle= 4 E= -835.701763092338  delta_E= -0.00679  |g|= 0.0422  |ddm|= 0.259
    CPU time for cycle= 4     38.79 sec, wall time     15.96 sec
  HOMO = -0.124829764933622  LUMO = -0.010194597729038
  mo_energy =
[-10.03871104 -10.03327474 -10.03173955 -10.02742513 -10.02574785
 -10.02537868 -10.02082476 -10.01879426 -10.01871478 -10.01621865
 -10.01611368 -10.01377623 -10.01257062 -10.01225317 -10.00978674
 -10.00813207 -10.00793369 -10.00576822 -10.00545467 -10.0016173
  -9.99726406  -9.99499484  -0.8518595   -0.83749496  -0.82504179
  -0.77775968  -0.77430357  -0.76308918  -0.72476293  -0.72126174
  -0.69414683  -0.67993945  -0.65986043  -0.61682971  -0.60497737
  -0.57340106  -0.56405002  -0.55608489  -0.53798667  -0.51903337
  -0.49419344  -0.49280342  -0.46981364  -0.45542816  -0.45079474
  -0.44170148  -0.42176499  -0.41026179  -0.39945783  -0.38864223
  -0.37531678  -0.37088962  -0.3696559   -0.36408039  -0.36062103
  -0.34806436  -0.34691704  -0.339354    -0.32981771  -0.32477335
  -0.28471903  -0.28292083  -0.27654761  -0.27036461  -0.25933236
  -0.24329787  -0.22253381  -0.2107384   -0.20827188  -0.19514704
  -0.17151304  -0.15089044  -0.12482976  -0.0101946    0.01896895
   0.05819633   0.07809386   0.11405241   0.15525188   0.16480873
   0.20092452   0.20473519   0.22234967   0.23912499   0.26412836
   0.27521314   0.28750561   0.29376274   0.30669341   0.31826034
   0.33635781   0.35065539   0.36538385   0.37976405   0.3858514
   0.41861552   0.42973079   0.43856456   0.44242952   0.46959455
   0.47658106   0.48346784   0.4935683    0.52011523   0.53487847
   0.55363871   0.55908806   0.57954236   0.59770817   0.62535092
   0.63176042   0.65444956   0.69419055   0.69603369   0.72973854
   0.73663469   0.76445948   0.78430789   0.79898319   0.81704841
   0.92284884   0.96148962   0.98141724   1.17862673]
nelec by numeric integration = 145.99999707895975
    CPU time for vxc     38.15 sec, wall time     15.69 sec
E1 = -4101.449602278896  Ecoul = 1895.80322307075  Exc = -124.64710347925175
cycle= 5 E= -835.702269361633  delta_E= -0.000506  |g|= 0.02  |ddm|= 0.0851
    CPU time for cycle= 5     38.54 sec, wall time     15.76 sec
  HOMO = -0.12419332732985  LUMO = -0.0094445777009447
  mo_energy =
[-1.00371188e+01 -1.00312291e+01 -1.00259315e+01 -1.00253342e+01
 -1.00250712e+01 -1.00230358e+01 -1.00214008e+01 -1.00182171e+01
 -1.00174736e+01 -1.00172928e+01 -1.00136689e+01 -1.00131137e+01
 -1.00117502e+01 -1.00110813e+01 -1.00094014e+01 -1.00093302e+01
 -1.00082429e+01 -1.00067143e+01 -1.00059305e+01 -1.00005871e+01
 -9.99640207e+00 -9.99184149e+00 -8.50434316e-01 -8.36656636e-01
 -8.24276577e-01 -7.77056540e-01 -7.73428431e-01 -7.62928591e-01
 -7.24184251e-01 -7.20515117e-01 -6.93566415e-01 -6.78557151e-01
 -6.59221160e-01 -6.16239199e-01 -6.04018849e-01 -5.72659450e-01
 -5.63590888e-01 -5.54748044e-01 -5.37308273e-01 -5.19019229e-01
 -4.93407581e-01 -4.92026860e-01 -4.68797905e-01 -4.54766766e-01
 -4.50238984e-01 -4.41058622e-01 -4.21278394e-01 -4.10050588e-01
 -3.98662403e-01 -3.87444971e-01 -3.74691654e-01 -3.70480243e-01
 -3.69183489e-01 -3.64106452e-01 -3.60253195e-01 -3.47411549e-01
 -3.46335450e-01 -3.38949502e-01 -3.29285681e-01 -3.24193834e-01
 -2.83970059e-01 -2.82092856e-01 -2.75958636e-01 -2.69684547e-01
 -2.58862667e-01 -2.42536666e-01 -2.21933377e-01 -2.10192581e-01
 -2.07656508e-01 -1.94652161e-01 -1.70883531e-01 -1.49700437e-01
 -1.24193327e-01 -9.44457770e-03  2.00798365e-02  5.89565741e-02
  7.87298612e-02  1.14809976e-01  1.56041029e-01  1.65428893e-01
  2.01456858e-01  2.05703296e-01  2.22402452e-01  2.39813823e-01
  2.64734061e-01  2.75801066e-01  2.88399122e-01  2.93896043e-01
  3.07017651e-01  3.19206353e-01  3.37604902e-01  3.51434386e-01
  3.65671943e-01  3.80391787e-01  3.86044326e-01  4.19382127e-01
  4.29732673e-01  4.39539220e-01  4.43002043e-01  4.70097247e-01
  4.76963122e-01  4.83881869e-01  4.94343954e-01  5.21165090e-01
  5.34926971e-01  5.54595910e-01  5.60013950e-01  5.80118775e-01
  5.98906742e-01  6.26264214e-01  6.32718635e-01  6.55511692e-01
  6.95177177e-01  6.97056213e-01  7.30583567e-01  7.37523502e-01
  7.65347266e-01  7.84310435e-01  7.99809736e-01  8.17919191e-01
  9.22593034e-01  9.63132006e-01  9.81771205e-01  1.18024179e+00]
nelec by numeric integration = 145.99999707890024
    CPU time for vxc     38.61 sec, wall time     15.85 sec
E1 = -4101.369618812009  Ecoul = 1895.7217456877179  Exc = -124.64573696783887
cycle= 6 E= -835.702396766366  delta_E= -0.000127  |g|= 0.006  |ddm|= 0.0338
    CPU time for cycle= 6     39.12 sec, wall time     15.93 sec
  HOMO = -0.12397312748179  LUMO = -0.00919234382990138
  mo_energy =
[-1.00375073e+01 -1.00318716e+01 -1.00265224e+01 -1.00253341e+01
 -1.00250902e+01 -1.00230782e+01 -1.00212496e+01 -1.00172538e+01
 -1.00168839e+01 -1.00167757e+01 -1.00140318e+01 -1.00120823e+01
 -1.00114809e+01 -1.00114563e+01 -1.00091746e+01 -1.00091015e+01
 -1.00066157e+01 -1.00063365e+01 -1.00051193e+01 -1.00004742e+01
 -9.99622762e+00 -9.99148908e+00 -8.50474545e-01 -8.36520293e-01
 -8.24252224e-01 -7.76759186e-01 -7.73399405e-01 -7.62718987e-01
 -7.23903426e-01 -7.20372007e-01 -6.93353332e-01 -6.78472171e-01
 -6.59039912e-01 -6.16054899e-01 -6.03905731e-01 -5.72646901e-01
 -5.63407741e-01 -5.54717656e-01 -5.37198905e-01 -5.18772693e-01
 -4.93339009e-01 -4.92009343e-01 -4.68707208e-01 -4.54686756e-01
 -4.50027009e-01 -4.41034183e-01 -4.21119382e-01 -4.09870486e-01
 -3.98608094e-01 -3.87377512e-01 -3.74568588e-01 -3.70306329e-01
 -3.69047610e-01 -3.63903849e-01 -3.60033032e-01 -3.47288913e-01
 -3.46186905e-01 -3.38790084e-01 -3.29054364e-01 -3.24128749e-01
 -2.83804906e-01 -2.81939126e-01 -2.75828305e-01 -2.69626723e-01
 -2.58688035e-01 -2.42485437e-01 -2.21789256e-01 -2.10002117e-01
 -2.07470585e-01 -1.94434726e-01 -1.70669306e-01 -1.49526827e-01
 -1.23973127e-01 -9.19234383e-03  2.02876425e-02  5.91211890e-02
  7.89624841e-02  1.15002730e-01  1.56095187e-01  1.65568502e-01
  2.01770730e-01  2.05796585e-01  2.22568319e-01  2.39845372e-01
  2.64757321e-01  2.75927794e-01  2.88474928e-01  2.94016486e-01
  3.07348632e-01  3.19368312e-01  3.37884018e-01  3.51610848e-01
  3.65657681e-01  3.80558688e-01  3.86224271e-01  4.19592566e-01
  4.29902320e-01  4.39631068e-01  4.43006417e-01  4.70168009e-01
  4.77081161e-01  4.84071582e-01  4.94465698e-01  5.21186886e-01
  5.35231156e-01  5.54744753e-01  5.60238233e-01  5.80403123e-01
  5.99034685e-01  6.26438274e-01  6.32928861e-01  6.55774518e-01
  6.95262955e-01  6.97129184e-01  7.30688842e-01  7.37563813e-01
  7.65431103e-01  7.84783551e-01  7.99864354e-01  8.18242950e-01
  9.23156569e-01  9.62900789e-01  9.81831315e-01  1.17986291e+00]
nelec by numeric integration = 145.9999970797334
    CPU time for vxc     37.66 sec, wall time     15.64 sec
E1 = -4101.358497416819  Ecoul = 1895.710255558013  Exc = -124.64538018264342
cycle= 7 E= -835.702408715685  delta_E= -1.19e-05  |g|= 0.00117  |ddm|= 0.00929
    CPU time for cycle= 7     38.22 sec, wall time     15.72 sec
  HOMO = -0.123989697683929  LUMO = -0.00918918671022741
  mo_energy =
[-1.00374292e+01 -1.00320455e+01 -1.00267304e+01 -1.00252190e+01
 -1.00252039e+01 -1.00229716e+01 -1.00210944e+01 -1.00174203e+01
 -1.00168986e+01 -1.00167872e+01 -1.00137336e+01 -1.00121470e+01
 -1.00115151e+01 -1.00114395e+01 -1.00091500e+01 -1.00090300e+01
 -1.00066311e+01 -1.00063960e+01 -1.00049637e+01 -1.00003881e+01
 -9.99613372e+00 -9.99161834e+00 -8.50527361e-01 -8.36464462e-01
 -8.24274787e-01 -7.76763471e-01 -7.73349587e-01 -7.62679383e-01
 -7.23894293e-01 -7.20362108e-01 -6.93325298e-01 -6.78500021e-01
 -6.59034234e-01 -6.16052154e-01 -6.03912468e-01 -5.72625777e-01
 -5.63399545e-01 -5.54766467e-01 -5.37203302e-01 -5.18741782e-01
 -4.93332975e-01 -4.91988082e-01 -4.68716956e-01 -4.54682312e-01
 -4.50026965e-01 -4.41019735e-01 -4.21113320e-01 -4.09852049e-01
 -3.98617003e-01 -3.87423142e-01 -3.74584259e-01 -3.70306208e-01
 -3.69070820e-01 -3.63880336e-01 -3.60004194e-01 -3.47258565e-01
 -3.46186220e-01 -3.38781950e-01 -3.29059240e-01 -3.24137007e-01
 -2.83802261e-01 -2.81922486e-01 -2.75817487e-01 -2.69581058e-01
 -2.58688638e-01 -2.42452575e-01 -2.21801043e-01 -2.10001219e-01
 -2.07452674e-01 -1.94422576e-01 -1.70647791e-01 -1.49549840e-01
 -1.23989698e-01 -9.18918671e-03  2.02747713e-02  5.91518781e-02
  7.89656015e-02  1.15030308e-01  1.56097825e-01  1.65580962e-01
  2.01780849e-01  2.05786983e-01  2.22598743e-01  2.39837731e-01
  2.64733943e-01  2.75954808e-01  2.88498434e-01  2.94028907e-01
  3.07291575e-01  3.19339186e-01  3.37832509e-01  3.51587943e-01
  3.65681139e-01  3.80559433e-01  3.86243442e-01  4.19585075e-01
  4.29939737e-01  4.39626640e-01  4.43028200e-01  4.70178175e-01
  4.77097021e-01  4.84079290e-01  4.94484157e-01  5.21241289e-01
  5.35265013e-01  5.54754836e-01  5.60240938e-01  5.80397755e-01
  5.99042725e-01  6.26440034e-01  6.32947623e-01  6.55770211e-01
  6.95296654e-01  6.97147923e-01  7.30693775e-01  7.37615665e-01
  7.65356083e-01  7.84787749e-01  7.99878189e-01  8.18201748e-01
  9.23157817e-01  9.63033015e-01  9.81897141e-01  1.17970904e+00]
nelec by numeric integration = 145.99999707972128
    CPU time for vxc     37.85 sec, wall time     15.77 sec
E1 = -4101.358304323874  Ecoul = 1895.7100355817151  Exc = -124.64535362540121
cycle= 8 E= -835.702409041795  delta_E= -3.26e-07  |g|= 0.00071  |ddm|= 0.00271
    CPU time for cycle= 8     38.21 sec, wall time     15.83 sec
  HOMO = -0.124002114329916  LUMO = -0.00919111425199349
  mo_energy =
[-1.00375025e+01 -1.00319441e+01 -1.00266383e+01 -1.00252454e+01
 -1.00251188e+01 -1.00230294e+01 -1.00210978e+01 -1.00173573e+01
 -1.00169060e+01 -1.00168271e+01 -1.00138461e+01 -1.00121790e+01
 -1.00115453e+01 -1.00114031e+01 -1.00091620e+01 -1.00090349e+01
 -1.00065429e+01 -1.00064989e+01 -1.00050166e+01 -1.00003708e+01
 -9.99619597e+00 -9.99162969e+00 -8.50503099e-01 -8.36495235e-01
 -8.24262158e-01 -7.76768214e-01 -7.73376260e-01 -7.62674026e-01
 -7.23904577e-01 -7.20378806e-01 -6.93345283e-01 -6.78478706e-01
 -6.59044814e-01 -6.16060109e-01 -6.03908076e-01 -5.72654026e-01
 -5.63398264e-01 -5.54747668e-01 -5.37208687e-01 -5.18739266e-01
 -4.93339673e-01 -4.92010111e-01 -4.68719831e-01 -4.54665560e-01
 -4.50036386e-01 -4.41040141e-01 -4.21121117e-01 -4.09847701e-01
 -3.98629132e-01 -3.87418554e-01 -3.74574920e-01 -3.70295987e-01
 -3.69061341e-01 -3.63874213e-01 -3.60016660e-01 -3.47278510e-01
 -3.46195908e-01 -3.38784534e-01 -3.29054062e-01 -3.24132158e-01
 -2.83810791e-01 -2.81936110e-01 -2.75807836e-01 -2.69602801e-01
 -2.58680062e-01 -2.42478239e-01 -2.21793632e-01 -2.10008643e-01
 -2.07461782e-01 -1.94404774e-01 -1.70663523e-01 -1.49535937e-01
 -1.24002114e-01 -9.19111425e-03  2.02898036e-02  5.91378506e-02
  7.89565681e-02  1.15018754e-01  1.56096568e-01  1.65576407e-01
  2.01780796e-01  2.05806146e-01  2.22602812e-01  2.39832283e-01
  2.64738520e-01  2.75937396e-01  2.88475164e-01  2.94028656e-01
  3.07311527e-01  3.19360516e-01  3.37860395e-01  3.51598914e-01
  3.65665037e-01  3.80556409e-01  3.86245604e-01  4.19601277e-01
  4.29945960e-01  4.39620613e-01  4.43008119e-01  4.70160531e-01
  4.77103537e-01  4.84088852e-01  4.94460815e-01  5.21197378e-01
  5.35246871e-01  5.54730684e-01  5.60243098e-01  5.80399078e-01
  5.99025650e-01  6.26430154e-01  6.32922760e-01  6.55774151e-01
  6.95276172e-01  6.97132316e-01  7.30705133e-01  7.37587506e-01
  7.65388796e-01  7.84776076e-01  7.99866625e-01  8.18209474e-01
  9.23143707e-01  9.62957122e-01  9.81909755e-01  1.17979022e+00]
nelec by numeric integration = 145.99999707974385
    CPU time for vxc     38.05 sec, wall time     15.70 sec
E1 = -4101.358889454249  Ecoul = 1895.7106528736658  Exc = -124.64538596839412
cycle= 9 E= -835.702409223213  delta_E= -1.81e-07  |g|= 0.000218  |ddm|= 0.00136
    CPU time for cycle= 9     38.61 sec, wall time     15.79 sec
  HOMO = -0.124004002007613  LUMO = -0.00918834640344756
  mo_energy =
[-1.00374879e+01 -1.00319665e+01 -1.00266544e+01 -1.00252701e+01
 -1.00251634e+01 -1.00230251e+01 -1.00211363e+01 -1.00173693e+01
 -1.00168878e+01 -1.00168090e+01 -1.00138468e+01 -1.00121521e+01
 -1.00115079e+01 -1.00114306e+01 -1.00091454e+01 -1.00090704e+01
 -1.00065665e+01 -1.00064975e+01 -1.00050409e+01 -1.00003849e+01
 -9.99618423e+00 -9.99158960e+00 -8.50510381e-01 -8.36497319e-01
 -8.24268303e-01 -7.76763672e-01 -7.73383169e-01 -7.62680612e-01
 -7.23902419e-01 -7.20384023e-01 -6.93342400e-01 -6.78487585e-01
 -6.59045364e-01 -6.16059771e-01 -6.03912620e-01 -5.72659664e-01
 -5.63402114e-01 -5.54749102e-01 -5.37210043e-01 -5.18740297e-01
 -4.93340470e-01 -4.92014828e-01 -4.68724172e-01 -4.54669307e-01
 -4.50033250e-01 -4.41044053e-01 -4.21122230e-01 -4.09847551e-01
 -3.98630294e-01 -3.87418698e-01 -3.74579533e-01 -3.70301491e-01
 -3.69067606e-01 -3.63878535e-01 -3.60019596e-01 -3.47282059e-01
 -3.46199176e-01 -3.38783560e-01 -3.29052722e-01 -3.24134959e-01
 -2.83810170e-01 -2.81935951e-01 -2.75810924e-01 -2.69610462e-01
 -2.58677562e-01 -2.42482476e-01 -2.21797212e-01 -2.10015751e-01
 -2.07462831e-01 -1.94408649e-01 -1.70662704e-01 -1.49543314e-01
 -1.24004002e-01 -9.18834640e-03  2.02833481e-02  5.91360448e-02
  7.89523389e-02  1.15019724e-01  1.56092516e-01  1.65571890e-01
  2.01779147e-01  2.05799442e-01  2.22599579e-01  2.39826451e-01
  2.64730892e-01  2.75936182e-01  2.88474980e-01  2.94034065e-01
  3.07307132e-01  3.19355855e-01  3.37852040e-01  3.51598796e-01
  3.65654279e-01  3.80554092e-01  3.86251431e-01  4.19593341e-01
  4.29947451e-01  4.39618431e-01  4.43001059e-01  4.70151979e-01
  4.77098008e-01  4.84084419e-01  4.94459417e-01  5.21200393e-01
  5.35255325e-01  5.54738400e-01  5.60238683e-01  5.80395399e-01
  5.99028781e-01  6.26426528e-01  6.32930765e-01  6.55771244e-01
  6.95272040e-01  6.97128430e-01  7.30692466e-01  7.37576558e-01
  7.65385934e-01  7.84785388e-01  7.99855160e-01  8.18215341e-01
  9.23157888e-01  9.62961337e-01  9.81885896e-01  1.17977379e+00]
nelec by numeric integration = 145.99999707975613
    CPU time for vxc     37.80 sec, wall time     15.64 sec
E1 = -4101.3593447889  Ecoul = 1895.7111162363408  Exc = -124.64539401411129
cycle= 10 E= -835.702409240906  delta_E= -1.77e-08  |g|= 7.7e-05  |ddm|= 0.000459
    CPU time for cycle= 10     38.27 sec, wall time     15.71 sec
  HOMO = -0.124005263842958  LUMO = -0.00918903022122825
  mo_energy =
[-1.00374820e+01 -1.00319652e+01 -1.00266497e+01 -1.00252626e+01
 -1.00251510e+01 -1.00230219e+01 -1.00211249e+01 -1.00173775e+01
 -1.00168976e+01 -1.00168186e+01 -1.00138511e+01 -1.00121616e+01
 -1.00115215e+01 -1.00114242e+01 -1.00091548e+01 -1.00090650e+01
 -1.00065582e+01 -1.00065022e+01 -1.00050260e+01 -1.00003948e+01
 -9.99617845e+00 -9.99160795e+00 -8.50508890e-01 -8.36496723e-01
 -8.24267424e-01 -7.76767086e-01 -7.73382324e-01 -7.62680874e-01
 -7.23904296e-01 -7.20382829e-01 -6.93343999e-01 -6.78486061e-01
 -6.59046065e-01 -6.16060976e-01 -6.03912295e-01 -5.72657882e-01
 -5.63401720e-01 -5.54749181e-01 -5.37210748e-01 -5.18741527e-01
 -4.93340902e-01 -4.92013515e-01 -4.68723041e-01 -4.54669825e-01
 -4.50035026e-01 -4.41042659e-01 -4.21122729e-01 -4.09849228e-01
 -3.98630072e-01 -3.87419695e-01 -3.74579272e-01 -3.70300801e-01
 -3.69067068e-01 -3.63878194e-01 -3.60020104e-01 -3.47280962e-01
 -3.46198362e-01 -3.38784902e-01 -3.29054696e-01 -3.24135503e-01
 -2.83811523e-01 -2.81936762e-01 -2.75812371e-01 -2.69609196e-01
 -2.58681000e-01 -2.42481686e-01 -2.21797638e-01 -2.10014802e-01
 -2.07464113e-01 -1.94410039e-01 -1.70663968e-01 -1.49542803e-01
 -1.24005264e-01 -9.18903022e-03  2.02839562e-02  5.91350984e-02
  7.89527521e-02  1.15018831e-01  1.56092523e-01  1.65571100e-01
  2.01777912e-01  2.05799492e-01  2.22598697e-01  2.39827066e-01
  2.64731662e-01  2.75936437e-01  2.88475044e-01  2.94031185e-01
  3.07308636e-01  3.19355231e-01  3.37853338e-01  3.51597431e-01
  3.65656532e-01  3.80552916e-01  3.86246508e-01  4.19593616e-01
  4.29945002e-01  4.39617789e-01  4.43002753e-01  4.70154350e-01
  4.77097343e-01  4.84083410e-01  4.94459806e-01  5.21200081e-01
  5.35251294e-01  5.54737306e-01  5.60239638e-01  5.80395656e-01
  5.99027155e-01  6.26427409e-01  6.32927766e-01  6.55770982e-01
  6.95273197e-01  6.97129560e-01  7.30696103e-01  7.37579664e-01
  7.65385705e-01  7.84780391e-01  7.99856055e-01  8.18211316e-01
  9.23150612e-01  9.62962607e-01  9.81891749e-01  1.17977662e+00]
nelec by numeric integration = 145.99999707976235
    CPU time for vxc     37.72 sec, wall time     15.74 sec
E1 = -4101.35920769602  Ecoul = 1895.7109812829826  Exc = -124.64539615576011
cycle= 11 E= -835.702409243033  delta_E= -2.13e-09  |g|= 3.76e-05  |ddm|= 0.000174
    CPU time for cycle= 11     38.29 sec, wall time     15.83 sec
  HOMO = -0.124004960334537  LUMO = -0.0091876401943292
  mo_energy =
[-1.00374854e+01 -1.00319648e+01 -1.00266510e+01 -1.00252610e+01
 -1.00251531e+01 -1.00230232e+01 -1.00211253e+01 -1.00173726e+01
 -1.00168944e+01 -1.00168154e+01 -1.00138464e+01 -1.00121582e+01
 -1.00115187e+01 -1.00114260e+01 -1.00091519e+01 -1.00090618e+01
 -1.00065602e+01 -1.00065001e+01 -1.00050286e+01 -1.00003858e+01
 -9.99618412e+00 -9.99160188e+00 -8.50509312e-01 -8.36496189e-01
 -8.24267278e-01 -7.76765153e-01 -7.73381021e-01 -7.62680733e-01
 -7.23902766e-01 -7.20382099e-01 -6.93342771e-01 -6.78486257e-01
 -6.59045104e-01 -6.16060184e-01 -6.03911954e-01 -5.72657374e-01
 -5.63400989e-01 -5.54749620e-01 -5.37209889e-01 -5.18741234e-01
 -4.93340253e-01 -4.92012711e-01 -4.68722891e-01 -4.54669527e-01
 -4.50033958e-01 -4.41042165e-01 -4.21121672e-01 -4.09848630e-01
 -3.98629409e-01 -3.87418857e-01 -3.74579108e-01 -3.70300777e-01
 -3.69066995e-01 -3.63878310e-01 -3.60018766e-01 -3.47280589e-01
 -3.46197771e-01 -3.38783889e-01 -3.29053592e-01 -3.24135034e-01
 -2.83810714e-01 -2.81936014e-01 -2.75811635e-01 -2.69608159e-01
 -2.58679887e-01 -2.42481109e-01 -2.21797464e-01 -2.10014408e-01
 -2.07463007e-01 -1.94409994e-01 -1.70663127e-01 -1.49542591e-01
 -1.24004960e-01 -9.18764019e-03  2.02845552e-02  5.91363480e-02
  7.89534325e-02  1.15020015e-01  1.56092944e-01  1.65572412e-01
  2.01778740e-01  2.05799177e-01  2.22598925e-01  2.39827599e-01
  2.64732152e-01  2.75936721e-01  2.88475483e-01  2.94031812e-01
  3.07308029e-01  3.19355373e-01  3.37853268e-01  3.51597778e-01
  3.65657230e-01  3.80553880e-01  3.86248282e-01  4.19593524e-01
  4.29945285e-01  4.39618572e-01  4.43003442e-01  4.70154729e-01
  4.77098147e-01  4.84084510e-01  4.94460459e-01  5.21201158e-01
  5.35252463e-01  5.54738104e-01  5.60239801e-01  5.80396255e-01
  5.99028296e-01  6.26427651e-01  6.32929514e-01  6.55771924e-01
  6.95274092e-01  6.97130107e-01  7.30695825e-01  7.37580450e-01
  7.65385311e-01  7.84782435e-01  7.99857927e-01  8.18212589e-01
  9.23152834e-01  9.62963274e-01  9.81890922e-01  1.17977577e+00]
nelec by numeric integration = 145.99999707976554
    CPU time for vxc     38.34 sec, wall time     15.84 sec
E1 = -4101.359203731098  Ecoul = 1895.710974918026  Exc = -124.64539375628586
cycle= 12 E= -835.702409243593  delta_E= -5.6e-10  |g|= 1.03e-05  |ddm|= 7.71e-05
    CPU time for cycle= 12     38.78 sec, wall time     15.91 sec
  HOMO = -0.124004753414094  LUMO = -0.00918720443242835
  mo_energy =
[-1.00374843e+01 -1.00319640e+01 -1.00266504e+01 -1.00252622e+01
 -1.00251522e+01 -1.00230218e+01 -1.00211270e+01 -1.00173715e+01
 -1.00168946e+01 -1.00168157e+01 -1.00138469e+01 -1.00121587e+01
 -1.00115172e+01 -1.00114257e+01 -1.00091521e+01 -1.00090626e+01
 -1.00065586e+01 -1.00064982e+01 -1.00050291e+01 -1.00003879e+01
 -9.99618040e+00 -9.99160262e+00 -8.50508739e-01 -8.36495983e-01
 -8.24267062e-01 -7.76765268e-01 -7.73380952e-01 -7.62680882e-01
 -7.23902823e-01 -7.20381589e-01 -6.93342650e-01 -6.78485903e-01
 -6.59044803e-01 -6.16060010e-01 -6.03911731e-01 -5.72657082e-01
 -5.63401049e-01 -5.54749272e-01 -5.37209735e-01 -5.18741234e-01
 -4.93340176e-01 -4.92012567e-01 -4.68722657e-01 -4.54669536e-01
 -4.50033907e-01 -4.41041919e-01 -4.21121526e-01 -4.09848660e-01
 -3.98629241e-01 -3.87418668e-01 -3.74578832e-01 -3.70300619e-01
 -3.69066450e-01 -3.63878258e-01 -3.60018927e-01 -3.47280288e-01
 -3.46197384e-01 -3.38783941e-01 -3.29053625e-01 -3.24134787e-01
 -2.83810390e-01 -2.81935792e-01 -2.75811492e-01 -2.69608165e-01
 -2.58679734e-01 -2.42480591e-01 -2.21796844e-01 -2.10013897e-01
 -2.07462856e-01 -1.94409822e-01 -1.70662817e-01 -1.49542239e-01
 -1.24004753e-01 -9.18720443e-03  2.02849209e-02  5.91366084e-02
  7.89539414e-02  1.15020203e-01  1.56093320e-01  1.65572484e-01
  2.01778589e-01  2.05799801e-01  2.22599010e-01  2.39827987e-01
  2.64732476e-01  2.75937078e-01  2.88476086e-01  2.94032007e-01
  3.07308710e-01  3.19355715e-01  3.37853693e-01  3.51598081e-01
  3.65657067e-01  3.80554320e-01  3.86248393e-01  4.19593931e-01
  4.29945359e-01  4.39618673e-01  4.43003456e-01  4.70154940e-01
  4.77098139e-01  4.84084427e-01  4.94460735e-01  5.21201325e-01
  5.35252534e-01  5.54738523e-01  5.60239921e-01  5.80396416e-01
  5.99028601e-01  6.26428295e-01  6.32929773e-01  6.55771641e-01
  6.95274014e-01  6.97130078e-01  7.30695645e-01  7.37580519e-01
  7.65385655e-01  7.84782186e-01  7.99857996e-01  8.18212720e-01
  9.23152684e-01  9.62963717e-01  9.81890395e-01  1.17977661e+00]
nelec by numeric integration = 145.99999707976679
    CPU time for vxc     38.30 sec, wall time     15.89 sec
E1 = -4101.3591747266855  Ecoul = 1895.7109461867599  Exc = -124.6453940294638
cycle= 13 E= -835.702409243625  delta_E= -3.14e-11  |g|= 6.09e-06  |ddm|= 2.62e-05
    CPU time for cycle= 13     38.75 sec, wall time     15.96 sec
  HOMO = -0.124005309408476  LUMO = -0.00918766389869697
  mo_energy =
[-1.00374861e+01 -1.00319656e+01 -1.00266516e+01 -1.00252613e+01
 -1.00251524e+01 -1.00230236e+01 -1.00211255e+01 -1.00173733e+01
 -1.00168937e+01 -1.00168147e+01 -1.00138483e+01 -1.00121575e+01
 -1.00115188e+01 -1.00114257e+01 -1.00091517e+01 -1.00090619e+01
 -1.00065605e+01 -1.00065009e+01 -1.00050285e+01 -1.00003873e+01
 -9.99618435e+00 -9.99160089e+00 -8.50509490e-01 -8.36496470e-01
 -8.24267435e-01 -7.76765089e-01 -7.73381508e-01 -7.62680330e-01
 -7.23902877e-01 -7.20382538e-01 -6.93342934e-01 -6.78486179e-01
 -6.59045356e-01 -6.16060351e-01 -6.03912015e-01 -5.72658001e-01
 -5.63401132e-01 -5.54749449e-01 -5.37210154e-01 -5.18740846e-01
 -4.93340485e-01 -4.92013221e-01 -4.68723087e-01 -4.54669257e-01
 -4.50033971e-01 -4.41042589e-01 -4.21121874e-01 -4.09848372e-01
 -3.98629682e-01 -3.87419012e-01 -3.74579023e-01 -3.70300723e-01
 -3.69067287e-01 -3.63878039e-01 -3.60018855e-01 -3.47280893e-01
 -3.46198106e-01 -3.38784000e-01 -3.29053485e-01 -3.24135188e-01
 -2.83810815e-01 -2.81936102e-01 -2.75811422e-01 -2.69608529e-01
 -2.58679697e-01 -2.42481628e-01 -2.21797634e-01 -2.10014787e-01
 -2.07463123e-01 -1.94409443e-01 -1.70663295e-01 -1.49542506e-01
 -1.24005309e-01 -9.18766390e-03  2.02845908e-02  5.91361697e-02
  7.89531290e-02  1.15019861e-01  1.56092685e-01  1.65572265e-01
  2.01779003e-01  2.05799274e-01  2.22599108e-01  2.39827206e-01
  2.64731815e-01  2.75936397e-01  2.88474995e-01  2.94031823e-01
  3.07307984e-01  3.19355563e-01  3.37853498e-01  3.51597884e-01
  3.65656921e-01  3.80553537e-01  3.86248274e-01  4.19593660e-01
  4.29945688e-01  4.39618471e-01  4.43003116e-01  4.70154299e-01
  4.77098102e-01  4.84084484e-01  4.94460095e-01  5.21200601e-01
  5.35252603e-01  5.54737841e-01  5.60239849e-01  5.80396223e-01
  5.99028227e-01  6.26427484e-01  6.32929419e-01  6.55771964e-01
  6.95273652e-01  6.97129817e-01  7.30695847e-01  7.37579973e-01
  7.65385444e-01  7.84782646e-01  7.99857466e-01  8.18212929e-01
  9.23153374e-01  9.62962157e-01  9.81891085e-01  1.17977537e+00]
nelec by numeric integration = 145.99999707976752
    CPU time for vxc     37.67 sec, wall time     15.71 sec
E1 = -4101.359217042707  Ecoul = 1895.7109890750676  Exc = -124.6453946017117
Extra cycle  E= -835.702409243587  delta_E= 3.77e-11  |g|= 1.18e-05  |ddm|= 2.39e-05
    CPU time for scf_cycle    586.77 sec, wall time    239.59 sec
    CPU time for SCF    586.78 sec, wall time    239.59 sec
converged SCF energy = -835.702409243587
nelec by numeric integration = 145.99999707976752
    CPU time for vxc     38.60 sec, wall time     15.84 sec
 ** Mulliken pop  **
pop of  0 C 1s            1.99119
pop of  0 C 2s            1.10371
pop of  0 C 2px           0.98533
pop of  0 C 2py           0.98937
pop of  0 C 2pz           0.94394
pop of  1 C 1s            1.99100
pop of  1 C 2s            1.11305
pop of  1 C 2px           0.98175
pop of  1 C 2py           0.97254
pop of  1 C 2pz           0.93818
pop of  2 C 1s            1.99071
pop of  2 C 2s            1.14557
pop of  2 C 2px           1.01306
pop of  2 C 2py           0.93881
pop of  2 C 2pz           0.99082
pop of  3 C 1s            1.99105
pop of  3 C 2s            1.09641
pop of  3 C 2px           1.01371
pop of  3 C 2py           0.97556
pop of  3 C 2pz           1.00212
pop of  4 C 1s            1.99091
pop of  4 C 2s            1.09157
pop of  4 C 2px           1.00489
pop of  4 C 2py           0.99139
pop of  4 C 2pz           0.99306
pop of  5 C 1s            1.99053
pop of  5 C 2s            1.10051
pop of  5 C 2px           1.02380
pop of  5 C 2py           0.97420
pop of  5 C 2pz           1.01792
pop of  6 C 1s            1.99118
pop of  6 C 2s            1.20054
pop of  6 C 2px           0.98528
pop of  6 C 2py           0.95210
pop of  6 C 2pz           0.91260
pop of  7 C 1s            1.99088
pop of  7 C 2s            1.16186
pop of  7 C 2px           0.97829
pop of  7 C 2py           0.99883
pop of  7 C 2pz           0.97275
pop of  8 C 1s            1.99098
pop of  8 C 2s            1.15808
pop of  8 C 2px           0.97510
pop of  8 C 2py           0.92330
pop of  8 C 2pz           0.90169
pop of  9 C 1s            1.99092
pop of  9 C 2s            1.13731
pop of  9 C 2px           0.96471
pop of  9 C 2py           0.94422
pop of  9 C 2pz           0.96378
pop of  10 C 1s           1.99114
pop of  10 C 2s           1.00240
pop of  10 C 2px          1.06548
pop of  10 C 2py          1.03861
pop of  10 C 2pz          1.09462
pop of  11 C 1s           1.99093
pop of  11 C 2s           1.17354
pop of  11 C 2px          1.00088
pop of  11 C 2py          0.94490
pop of  11 C 2pz          0.99264
pop of  12 C 1s           1.99201
pop of  12 C 2s           1.07404
pop of  12 C 2px          0.97285
pop of  12 C 2py          1.01193
pop of  12 C 2pz          0.95967
pop of  13 C 1s           1.99173
pop of  13 C 2s           1.23958
pop of  13 C 2px          0.93674
pop of  13 C 2py          0.91859
pop of  13 C 2pz          0.89565
pop of  14 C 1s           1.99136
pop of  14 C 2s           1.21860
pop of  14 C 2px          0.96715
pop of  14 C 2py          0.91295
pop of  14 C 2pz          0.94815
pop of  15 C 1s           1.99105
pop of  15 C 2s           1.09243
pop of  15 C 2px          1.03409
pop of  15 C 2py          0.96277
pop of  15 C 2pz          1.02794
pop of  16 C 1s           1.99095
pop of  16 C 2s           1.16680
pop of  16 C 2px          0.99552
pop of  16 C 2py          0.93080
pop of  16 C 2pz          0.91822
pop of  17 C 1s           1.99040
pop of  17 C 2s           1.05783
pop of  17 C 2px          1.00238
pop of  17 C 2py          0.99419
pop of  17 C 2pz          0.98004
pop of  18 C 1s           1.99137
pop of  18 C 2s           1.19627
pop of  18 C 2px          0.99634
pop of  18 C 2py          0.92228
pop of  18 C 2pz          0.94838
pop of  19 C 1s           1.99103
pop of  19 C 2s           1.17866
pop of  19 C 2px          0.96359
pop of  19 C 2py          0.94095
pop of  19 C 2pz          0.97666
pop of  20 C 1s           1.99075
pop of  20 C 2s           1.12816
pop of  20 C 2px          0.99866
pop of  20 C 2py          0.99517
pop of  20 C 2pz          0.95492
pop of  21 C 1s           1.99062
pop of  21 C 2s           1.13516
pop of  21 C 2px          1.01751
pop of  21 C 2py          1.00724
pop of  21 C 2pz          0.95160
pop of  22 H 1s           0.92017
pop of  23 H 1s           0.94649
pop of  24 H 1s           0.95151
pop of  25 H 1s           0.90400
pop of  26 H 1s           0.92747
pop of  27 H 1s           0.90524
pop of  28 H 1s           0.87014
pop of  29 H 1s           0.92354
pop of  30 H 1s           0.94066
pop of  31 H 1s           0.87697
pop of  32 H 1s           0.90062
pop of  33 H 1s           0.91511
pop of  34 H 1s           0.93727
pop of  35 H 1s           0.90289
 ** Mulliken atomic charges  **
charge of    0C =     -0.01355
charge of    1C =      0.00349
charge of    2C =     -0.07897
charge of    3C =     -0.07885
charge of    4C =     -0.07182
charge of    5C =     -0.10697
charge of    6C =     -0.04170
charge of    7C =     -0.10262
charge of    8C =      0.05086
charge of    9C =     -0.00095
charge of   10C =     -0.19224
charge of   11C =     -0.10288
charge of   12C =     -0.01049
charge of   13C =      0.01772
charge of   14C =     -0.03820
charge of   15C =     -0.10828
charge of   16C =     -0.00230
charge of   17C =     -0.02484
charge of   18C =     -0.05463
charge of   19C =     -0.05089
charge of   20C =     -0.06765
charge of   21C =     -0.10214
charge of   22H =      0.07983
charge of   23H =      0.05351
charge of   24H =      0.04849
charge of   25H =      0.09600
charge of   26H =      0.07253
charge of   27H =      0.09476
charge of   28H =      0.12986
charge of   29H =      0.07646
charge of   30H =      0.05934
charge of   31H =      0.12303
charge of   32H =      0.09938
charge of   33H =      0.08489
charge of   34H =      0.06273
charge of   35H =      0.09711
Dipole moment(X, Y, Z, Debye):  0.18859, -0.66520, -0.22117
nelec by numeric integration = 145.99999707976752
    CPU time for vxc     38.11 sec, wall time     15.75 sec
E1 = -4101.359217042707  Ecoul = 1895.7109890750673  Exc = -124.6453946017117
nelec by numeric integration = 145.99999707976752
    CPU time for vxc     37.60 sec, wall time     15.68 sec
E1 = -4101.359217042707  Ecoul = 1895.7109890750673  Exc = -124.6453946017117
