System: uname_result(system='Linux', node='cosmopc18', release='5.15.0-97-generic', version='#107-Ubuntu SMP Wed Feb 7 13:26:48 UTC 2024', machine='x86_64')  Threads 4
Python 3.11.8 (main, Feb 26 2024, 21:39:34) [GCC 11.2.0]
numpy 1.26.4  scipy 1.11.4
Date: Tue Apr  9 12:47:37 2024
PySCF version 2.3.0
PySCF path  /home/saade/miniconda3/envs/tutorial/lib/python3.11/site-packages/pyscf

[ENV] PYSCFAD_BACKEND torch
[CONFIG] conf_file None
[INPUT] verbose = 5
[INPUT] max_memory = 4000 
[INPUT] num. atoms = 36
[INPUT] num. electrons = 146
[INPUT] charge = 0
[INPUT] spin (= nelec alpha-beta = 2S) = 0
[INPUT] symmetry False subgroup None
[INPUT] Mole.unit = angstrom
[INPUT] Symbol           X                Y                Z      unit          X                Y                Z       unit  Magmom
[INPUT]  1 C     -0.255948000000   3.636365000000   0.746811000000 AA   -0.483671622130   6.871733938954   1.411268256813 Bohr   0.0
[INPUT]  2 C      0.090353000000   3.718291000000  -0.751535000000 AA    0.170742424533   7.026551641435  -1.420195323025 Bohr   0.0
[INPUT]  3 C     -0.017551000000   4.983586000000   1.542797000000 AA   -0.033166583212   9.417612658217   2.915463795801 Bohr   0.0
[INPUT]  4 C      0.111273000000   2.595433000000   1.398869000000 AA    0.210275495059   4.904657544658   2.643479294144 Bohr   0.0
[INPUT]  5 C     -0.012895000000   4.931058000000  -1.515321000000 AA   -0.024368018376   9.318349124346  -2.863541680802 Bohr   0.0
[INPUT]  6 C      0.029628000000   2.383237000000  -1.538047000000 AA    0.055988805619   4.503665219930  -2.906487596709 Bohr   0.0
[INPUT]  7 C     -0.084781000000   6.051385000000  -0.594377000000 AA   -0.160212870567  11.435460324301  -1.123209744741 Bohr   0.0
[INPUT]  8 C      0.014490000000   6.032381000000   0.769852000000 AA    0.027382131545  11.399547969030   1.454809436449 Bohr   0.0
[INPUT]  9 C      0.171979000000   1.387230000000   0.640971000000 AA    0.324993209177   2.621484771780   1.211259643789 Bohr   0.0
[INPUT] 10 C      0.037093000000   1.186609000000  -0.836852000000 AA    0.070095611138   2.242366026944  -1.581421086795 Bohr   0.0
[INPUT] 11 C      0.151250000000   0.055686000000   1.301594000000 AA    0.285821076340   0.105231288973   2.459656185377 Bohr   0.0
[INPUT] 12 C      0.111765000000  -0.009803000000  -1.508369000000 AA    0.211205240312  -0.018524985199  -2.850404304784 Bohr   0.0
[INPUT] 13 C     -0.064165000000  -1.205592000000   0.742556000000 AA   -0.121254276783  -2.278238697967   1.403227472153 Bohr   0.0
[INPUT] 14 C      0.094998000000  -1.233546000000  -0.691378000000 AA    0.179520202381  -2.331064102053  -1.306515068550 Bohr   0.0
[INPUT] 15 C      0.060143000000  -2.551978000000   1.322464000000 AA    0.113653798310  -4.822539495915   2.499094769597 Bohr   0.0
[INPUT] 16 C      0.003722000000  -2.516246000000  -1.330651000000 AA    0.007033560636  -4.755015802032  -2.514565957379 Bohr   0.0
[INPUT] 17 C      0.032778000000  -3.667887000000   0.783927000000 AA    0.061941442911  -6.931301885853   1.481407331652 Bohr   0.0
[INPUT] 18 C     -0.160813000000  -3.650451000000  -0.906389000000 AA   -0.303892527270  -6.898352621145  -1.712826972318 Bohr   0.0
[INPUT] 19 C     -0.004254000000  -4.776481000000   1.471893000000 AA   -0.008038894934  -9.026240929189   2.781474654664 Bohr   0.0
[INPUT] 20 C     -0.012067000000  -5.070034000000  -1.385374000000 AA   -0.022803325145  -9.580975702233  -2.617977440093 Bohr   0.0
[INPUT] 21 C     -0.040418000000  -5.958523000000   0.615230000000 AA   -0.076378950503 -11.259976576922   1.162616203616 Bohr   0.0
[INPUT] 22 C     -0.058895000000  -5.974470000000  -0.661213000000 AA   -0.111295420106 -11.290112039430  -1.249511480002 Bohr   0.0
[INPUT] 23 H      0.161630000000   4.806319000000   2.583556000000 AA    0.305436433513   9.082626577293   4.882213267477 Bohr   0.0
[INPUT] 24 H      0.098257000000   2.296765000000   2.352297000000 AA    0.185678819821   4.340256822487   4.445197093636 Bohr   0.0
[INPUT] 25 H     -0.194552000000   4.982750000000  -2.347234000000 AA   -0.367649996986   9.416032847177  -4.435629410267 Bohr   0.0
[INPUT] 26 H      0.257475000000   2.424415000000  -2.453002000000 AA    0.486557233922   4.581480362287  -4.635501963010 Bohr   0.0
[INPUT] 27 H      0.013609000000   7.136456000000  -1.183702000000 AA    0.025717282829  13.485947340009  -2.236872593100 Bohr   0.0
[INPUT] 28 H      0.009252000000   6.882743000000   1.144356000000 AA    0.017483746104  13.006499255767   2.162519429003 Bohr   0.0
[INPUT] 29 H     -0.027174000000   0.106852000000   2.460522000000 AA   -0.051351417709   0.201921015862   4.649712703467 Bohr   0.0
[INPUT] 30 H     -0.048653000000   0.039273000000  -2.444371000000 AA   -0.091940845138   0.074215214090  -4.619191736829 Bohr   0.0
[INPUT] 31 H     -0.054767000000  -2.353543000000   2.496211000000 AA   -0.103494630664  -4.447551692387   4.717155139127 Bohr   0.0
[INPUT] 32 H     -0.144415000000  -2.611649000000  -2.461996000000 AA   -0.272904798279  -4.935301343494  -4.652498159775 Bohr   0.0
[INPUT] 33 H     -0.003173000000  -4.759310000000   2.453269000000 AA   -0.005996100993  -8.993792441904   4.636006519886 Bohr   0.0
[INPUT] 34 H      0.000243000000  -5.078735000000  -2.591839000000 AA    0.000459203448  -9.597418209243  -4.897865868967 Bohr   0.0
[INPUT] 35 H      0.062726000000  -6.949246000000   1.081617000000 AA    0.118534960889 -13.132171712229   2.043959901674 Bohr   0.0
[INPUT] 36 H     -0.027031000000  -7.082039000000  -1.145652000000 AA   -0.051081186873 -13.383114113489  -2.164968514060 Bohr   0.0
[INPUT] ---------------- BASIS SET ---------------- 
[INPUT] l, kappa, [nprim/nctr], expnt,             c_1 c_2 ...
[INPUT] H
[INPUT] 0    0    [3    /1   ]  3.42525091        0.15432897
                                0.62391373        0.53532814
                                0.1688554         0.44463454
[INPUT] C
[INPUT] 0    0    [3    /1   ]  71.616837         0.15432897
                                13.045096         0.53532814
                                3.5305122         0.44463454
[INPUT] 0    0    [3    /1   ]  2.9412494         -0.09996723
                                0.6834831         0.39951283
                                0.2222899         0.70011547
[INPUT] 1    0    [3    /1   ]  2.9412494         0.15591627
                                0.6834831         0.60768372
                                0.2222899         0.39195739

nuclear repulsion = 1499.38929540622
number of shells = 80
number of NR pGTOs = 372
number of NR cGTOs = 124
basis = sto3g
ecp = {}
CPU time:     27224.22
atom C rad-grids = 99, ang-grids = [ 50  50  50  50  50  50  50  50  50  50  50  50  50  50  50  50  50  50
  50  50  50  50  50  50  50  50  50  50  50  50  50  86  86  86  86  86
  86  86  86  86  86  86  86 434 434 434 434 434 434 434 434 434 590 590
 590 590 590 590 590 590 590 590 590 590 590 590 590 590 590 590 590 590
 590 590 590 590 590 590 590 434 434 434 434 434 434 434 434 434 434 434
 434 434 434 434 434 434 434 434 434]
atom H rad-grids = 99, ang-grids = [ 50  50  50  50  50  50  50  50  50  50  50  50  50  50  50  50  50  50
  50  50  50  50  50  50  50  50  50  50  86  86  86  86  86  86  86 434
 434 434 434 434 434 434 434 590 590 590 590 590 590 590 590 590 590 590
 590 590 590 590 590 590 590 590 590 590 590 590 590 590 590 434 434 434
 434 434 434 434 434 434 434 434 434 434 434 434 434 434 434 434 434 434
 434 434 434 434 434 434 434 434 434]
tot_boxes 5270, boxes in each direction [ 8 29 15]
Padding 0 grids
tot grids = 1157832


******** <class 'pyscf.dft.rks.RKS'> ********
method = RKS
initial guess = minao
damping factor = 0
level_shift factor = 0
DIIS = <class 'pyscf.scf.diis.CDIIS'>
diis_start_cycle = 1
diis_space = 8
SCF conv_tol = 1e-10
SCF conv_tol_grad = None
SCF max_cycles = 50
direct_scf = True
direct_scf_tol = 1e-13
chkfile to save SCF result = /home/saade/mlelec/tutorials/tmpxzfngkf1
max_memory 4000 MB (current use 637 MB)
XC library pyscf.dft.libxc version 6.1.0
    S. Lehtola, C. Steigemann, M. J.T. Oliveira, and M. A.L. Marques.,  SoftwareX 7, 1–5 (2018)
XC functionals = b3lypg
    P. J. Stephens, F. J. Devlin, C. F. Chabalowski, and M. J. Frisch.,  J. Phys. Chem. 98, 11623 (1994)
radial grids: 
    Treutler-Ahlrichs [JCP 102, 346 (1995); DOI:10.1063/1.469408] (M4) radial grids
    
becke partition: Becke, JCP 88, 2547 (1988); DOI:10.1063/1.454033
pruning grids: <function nwchem_prune at 0x7f9db5616ca0>
grids dens level: 3
symmetrized grids: False
atomic radii adjust function: <function treutler_atomic_radii_adjust at 0x7f9db5617380>
User specified grid scheme (99, 590)
small_rho_cutoff = 1e-07
Set gradient conv threshold to 1e-05
Initial guess from minao.
nelec by numeric integration = 145.26794575278282
    CPU time for vxc     37.33 sec, wall time     15.68 sec
E1 = -4098.481658838776  Ecoul = 1883.592430595997  Exc = -126.21745672208024
init E= -841.717389558641
cond(S) = 23.936457714119896
    CPU time for initialize scf     47.27 sec, wall time     18.07 sec
  HOMO = -0.214933617653935  LUMO = -0.145541525583447
  mo_energy =
[-10.14484247 -10.12434881 -10.12378395 -10.12332533 -10.1217486
 -10.12024739 -10.11375852 -10.11282963 -10.11271687 -10.10845573
 -10.10705153 -10.10509077 -10.10484838 -10.10111665 -10.09818172
 -10.09754109 -10.09727732 -10.09160709 -10.09083125 -10.09019712
 -10.07756186 -10.07641956  -1.09589209  -1.06548062  -1.03386482
  -1.00221104  -0.97418043  -0.95269503  -0.93372415  -0.90335085
  -0.85614009  -0.84792168  -0.81358947  -0.76968559  -0.73236352
  -0.71364796  -0.70338126  -0.68110986  -0.65975194  -0.64228183
  -0.6133637   -0.58868832  -0.58069949  -0.56056153  -0.54259737
  -0.5360947   -0.53137202  -0.51193009  -0.49458972  -0.49213859
  -0.48845094  -0.47674692  -0.47348234  -0.44892288  -0.44437767
  -0.43569298  -0.4295988   -0.42204726  -0.41726842  -0.40371942
  -0.39077514  -0.38332778  -0.37346081  -0.36769316  -0.34908702
  -0.34564432  -0.33423588  -0.32357007  -0.30088472  -0.29636704
  -0.26711345  -0.2486743   -0.21493362  -0.14554153  -0.10610958
  -0.08665487  -0.05258268  -0.02068506  -0.01391741   0.03538585
   0.05585955   0.08198539   0.09760196   0.12527176   0.1342375
   0.16583468   0.17597063   0.18919859   0.19626503   0.21248282
   0.22644583   0.24843515   0.25163479   0.25411515   0.26899754
   0.2915515    0.29743809   0.30160621   0.30769282   0.34086555
   0.34452646   0.36955754   0.39354931   0.40301514   0.41242498
   0.43331396   0.45732808   0.47478053   0.48592286   0.51762357
   0.53164512   0.53364634   0.55277061   0.58972851   0.59733924
   0.61890511   0.66195103   0.67210898   0.70425455   0.7087544
   0.73721958   0.74829144   0.81423952   0.90701573]
nelec by numeric integration = 146.00000279330192
    CPU time for vxc     38.27 sec, wall time     15.75 sec
E1 = -4113.277685624089  Ecoul = 1902.9908391531576  Exc = -124.85174441702624
cycle= 1 E= -835.749295481739  delta_E= 5.97  |g|= 0.304  |ddm|= 9.28
    CPU time for cycle= 1     38.65 sec, wall time     15.82 sec
  HOMO = -0.0931820833140793  LUMO = 0.00699204232209682
  mo_energy =
[-1.00610894e+01 -1.00594867e+01 -1.00561601e+01 -1.00363145e+01
 -1.00168917e+01 -1.00054117e+01 -1.00037627e+01 -9.99749058e+00
 -9.99671814e+00 -9.99575801e+00 -9.99304427e+00 -9.99025358e+00
 -9.98671838e+00 -9.98069125e+00 -9.97347650e+00 -9.97177843e+00
 -9.96892328e+00 -9.94769827e+00 -9.94078576e+00 -9.93780534e+00
 -9.91868022e+00 -9.90625317e+00 -8.36581633e-01 -8.21137118e-01
 -7.98620457e-01 -7.77927691e-01 -7.47056122e-01 -7.38358165e-01
 -7.29722809e-01 -7.05147348e-01 -6.78776899e-01 -6.59011303e-01
 -6.35190700e-01 -6.18058484e-01 -5.92938417e-01 -5.69302315e-01
 -5.62158339e-01 -5.40195275e-01 -5.22968732e-01 -5.12022205e-01
 -4.98502241e-01 -4.73462330e-01 -4.62415754e-01 -4.50438641e-01
 -4.32986204e-01 -4.26354386e-01 -4.13658949e-01 -4.01663762e-01
 -3.95271148e-01 -3.86384863e-01 -3.75786204e-01 -3.65586810e-01
 -3.54503426e-01 -3.45845821e-01 -3.39394807e-01 -3.34991418e-01
 -3.18401566e-01 -3.15971260e-01 -3.06565220e-01 -3.02194685e-01
 -2.99248181e-01 -2.80167040e-01 -2.68347343e-01 -2.51598147e-01
 -2.45095990e-01 -2.38642544e-01 -2.29188852e-01 -2.18609042e-01
 -1.92137799e-01 -1.85679677e-01 -1.55873700e-01 -1.30274696e-01
 -9.31820833e-02  6.99204232e-03  3.89613326e-02  6.23890267e-02
  8.89246839e-02  1.28386205e-01  1.50877046e-01  1.97037349e-01
  2.21240898e-01  2.27443725e-01  2.52600320e-01  2.75068369e-01
  2.80531485e-01  2.91218607e-01  3.02957460e-01  3.44537273e-01
  3.53391110e-01  3.61571764e-01  3.70438781e-01  3.87225496e-01
  3.98742025e-01  4.03946017e-01  4.07004656e-01  4.27619076e-01
  4.45507679e-01  4.55711286e-01  4.86252603e-01  4.87962718e-01
  4.90611810e-01  5.25051683e-01  5.46048309e-01  5.51055686e-01
  5.71035610e-01  5.86180766e-01  5.99522264e-01  6.39305269e-01
  6.41291945e-01  6.50500168e-01  6.80025553e-01  6.99816016e-01
  7.06877916e-01  7.33556753e-01  7.66037135e-01  7.90692054e-01
  8.07183203e-01  8.40154860e-01  8.41292128e-01  8.80443984e-01
  8.86260825e-01  9.30378735e-01  1.00035561e+00  1.08635767e+00]
nelec by numeric integration = 146.00000278030973
    CPU time for vxc     38.16 sec, wall time     15.74 sec
E1 = -4108.59722456437  Ecoul = 1898.2050297633548  Exc = -124.71439112798251
cycle= 2 E= -835.717290522779  delta_E= 0.032  |g|= 0.428  |ddm|= 1.17
    CPU time for cycle= 2     38.69 sec, wall time     15.82 sec
  HOMO = -0.111597137794745  LUMO = -0.00845319914319067
  mo_energy =
[-1.00288825e+01 -1.00253309e+01 -1.00231644e+01 -1.00175532e+01
 -1.00161422e+01 -1.00139748e+01 -1.00130492e+01 -1.00107659e+01
 -1.00105477e+01 -1.00097212e+01 -1.00064773e+01 -1.00060121e+01
 -1.00053664e+01 -1.00015579e+01 -9.99863488e+00 -9.99667328e+00
 -9.99647804e+00 -9.99418774e+00 -9.99300939e+00 -9.98986171e+00
 -9.98762205e+00 -9.98695035e+00 -8.46408609e-01 -8.29693142e-01
 -8.07369138e-01 -7.88021296e-01 -7.66426678e-01 -7.55534795e-01
 -7.39419226e-01 -7.22500848e-01 -6.85074591e-01 -6.75967287e-01
 -6.56278966e-01 -6.19953089e-01 -5.95971994e-01 -5.80294149e-01
 -5.75594054e-01 -5.55693954e-01 -5.32904270e-01 -5.22079806e-01
 -5.00443961e-01 -4.81533179e-01 -4.70426198e-01 -4.55062269e-01
 -4.46188512e-01 -4.36893948e-01 -4.29356144e-01 -4.16314912e-01
 -3.97174705e-01 -3.94115916e-01 -3.87550154e-01 -3.80077648e-01
 -3.61694209e-01 -3.55203197e-01 -3.43784411e-01 -3.41333920e-01
 -3.34090970e-01 -3.30695997e-01 -3.16492017e-01 -3.10568966e-01
 -2.95465422e-01 -2.91697532e-01 -2.83417670e-01 -2.67482827e-01
 -2.62701506e-01 -2.46338847e-01 -2.42536989e-01 -2.23947940e-01
 -2.10219257e-01 -2.00880468e-01 -1.64476610e-01 -1.46973965e-01
 -1.11597138e-01 -8.45319914e-03  3.22802579e-02  5.06885691e-02
  8.59684053e-02  1.25360525e-01  1.29880019e-01  1.86066688e-01
  2.02085864e-01  2.21032227e-01  2.41997144e-01  2.64779727e-01
  2.72069369e-01  3.07008491e-01  3.15059115e-01  3.28725156e-01
  3.35414797e-01  3.57821811e-01  3.67854072e-01  3.89841511e-01
  3.93659631e-01  3.95744014e-01  4.09678864e-01  4.27244562e-01
  4.28968392e-01  4.44012752e-01  4.55311677e-01  4.76520559e-01
  4.81277135e-01  5.10146617e-01  5.33035369e-01  5.38493410e-01
  5.58094122e-01  5.74699451e-01  5.95345981e-01  6.16703494e-01
  6.19662530e-01  6.58403401e-01  6.69873257e-01  6.76890547e-01
  6.95357178e-01  7.27158554e-01  7.35872561e-01  7.64485546e-01
  8.02348560e-01  8.13953736e-01  8.40002075e-01  8.58520122e-01
  8.86949393e-01  8.96817471e-01  9.69617000e-01  1.06332123e+00]
nelec by numeric integration = 146.0000028268306
    CPU time for vxc     38.27 sec, wall time     15.79 sec
E1 = -4109.997947427761  Ecoul = 1899.569759532209  Exc = -124.73476708408654
cycle= 3 E= -835.77365957342  delta_E= -0.0564  |g|= 0.183  |ddm|= 0.957
    CPU time for cycle= 3     38.75 sec, wall time     15.87 sec
  HOMO = -0.115526663461423  LUMO = -0.0142480128258074
  mo_energy =
[-10.03293227 -10.02757595 -10.0259467  -10.02481063 -10.02290324
 -10.0211732  -10.02048913 -10.01987842 -10.01963978 -10.01875132
 -10.0176324  -10.01755668 -10.01683952 -10.01564998 -10.01547039
 -10.01395688 -10.0129375  -10.01278533 -10.01101671 -10.01045136
 -10.000835    -9.98940315  -0.85673377  -0.8353558   -0.81756254
  -0.7959858   -0.77625079  -0.76010004  -0.74542456  -0.72586731
  -0.68854019  -0.68552282  -0.65677427  -0.63074654  -0.60194739
  -0.58526137  -0.57786882  -0.55621577  -0.53945499  -0.52791324
  -0.51035145  -0.48409189  -0.47400599  -0.46006762  -0.45528809
  -0.43920823  -0.43334934  -0.42037869  -0.40272503  -0.3979709
  -0.39429532  -0.38731933  -0.37039456  -0.36439717  -0.34886484
  -0.34798998  -0.34040252  -0.33323095  -0.32405896  -0.31877785
  -0.30412876  -0.29602643  -0.28974052  -0.27610326  -0.26655239
  -0.25245162  -0.24789612  -0.23298858  -0.21692421  -0.20645971
  -0.17018472  -0.15421012  -0.11552666  -0.01424801   0.02479544
   0.04431145   0.08011529   0.1156788    0.12599598   0.17725765
   0.19388063   0.21419596   0.23237243   0.25909352   0.26669066
   0.29565468   0.30782067   0.31946003   0.33330848   0.35246622
   0.36058957   0.38648344   0.38781986   0.38933799   0.40181703
   0.41656769   0.42434258   0.44246198   0.45457216   0.47394398
   0.47841632   0.50877989   0.5318978    0.53644472   0.55193214
   0.56854982   0.58720505   0.61343298   0.61407249   0.65136133
   0.66393711   0.67316261   0.69364333   0.71461954   0.73799142
   0.75860261   0.79764822   0.80624994   0.83482341   0.84764148
   0.87461739   0.8846435    0.95773987   1.05065255]
nelec by numeric integration = 146.00000280675798
    CPU time for vxc     38.40 sec, wall time     15.89 sec
E1 = -4110.477764312222  Ecoul = 1900.0552264629837  Exc = -124.75277263188225
cycle= 4 E= -835.786015074902  delta_E= -0.0124  |g|= 0.0448  |ddm|= 0.363
    CPU time for cycle= 4     38.84 sec, wall time     15.96 sec
  HOMO = -0.117079230233701  LUMO = -0.0147468249118115
  mo_energy =
[-10.03083612 -10.0295439  -10.02901754 -10.02724073 -10.02481655
 -10.02468879 -10.02328946 -10.02254976 -10.02112492 -10.01920899
 -10.018394   -10.01820387 -10.01813378 -10.01629412 -10.01244727
 -10.01122008 -10.00889173 -10.00762224 -10.00690929 -10.00594264
 -10.00397761 -10.00147591  -0.8537436   -0.83764066  -0.81683841
  -0.79573204  -0.77386125  -0.76123941  -0.74668446  -0.72769637
  -0.6887495   -0.6851811   -0.65836719  -0.62948508  -0.60213418
  -0.58633664  -0.57983234  -0.55840579  -0.53757064  -0.52804184
  -0.5094105   -0.48386471  -0.47430242  -0.46019301  -0.45471003
  -0.43973364  -0.43389308  -0.41952308  -0.40494794  -0.39901817
  -0.39257568  -0.38917687  -0.36826716  -0.36474061  -0.34966161
  -0.34926991  -0.33964953  -0.33400619  -0.32386416  -0.3184801
  -0.30593396  -0.29678328  -0.28908847  -0.27480056  -0.26661516
  -0.25520239  -0.250524    -0.23344595  -0.21499     -0.2084509
  -0.17167814  -0.15415992  -0.11707923  -0.01474682   0.02473492
   0.0430347    0.07723779   0.11495204   0.12453704   0.17846293
   0.19574411   0.21464219   0.23271461   0.26065568   0.26545192
   0.29553462   0.3072884    0.32184688   0.33141502   0.34971451
   0.36020911   0.38499601   0.38749055   0.39030877   0.40281021
   0.41595029   0.4254051    0.43897909   0.45494075   0.47321853
   0.47696778   0.50656204   0.5309768    0.53341549   0.55171878
   0.56856558   0.58694373   0.61282676   0.61655082   0.65034696
   0.66274153   0.67104062   0.69338625   0.71424216   0.73603075
   0.76070559   0.79726205   0.8033535    0.83328227   0.8501521
   0.8732024    0.88983797   0.96149551   1.05234081]
nelec by numeric integration = 146.00000280323206
    CPU time for vxc     38.20 sec, wall time     15.77 sec
E1 = -4110.500259818363  Ecoul = 1900.0760702084553  Exc = -124.75173218855679
cycle= 5 E= -835.786626392246  delta_E= -0.000611  |g|= 0.0211  |ddm|= 0.0985
    CPU time for cycle= 5     38.68 sec, wall time     15.85 sec
  HOMO = -0.116587075480093  LUMO = -0.0140495709345845
  mo_energy =
[-10.02667366 -10.02645665 -10.02579275 -10.02548897 -10.02352868
 -10.02283771 -10.02223104 -10.0206348  -10.02059064 -10.02036407
 -10.01810526 -10.01738599 -10.01719548 -10.0152092  -10.01416789
 -10.00970349 -10.00926757 -10.00871041 -10.00755821 -10.00700965
 -10.00409459  -9.99899284  -0.85303778  -0.83624811  -0.81620229
  -0.79505153  -0.7739459   -0.76028386  -0.74598878  -0.72718493
  -0.6879728   -0.68487634  -0.65734963  -0.62918337  -0.60154561
  -0.58552295  -0.57911686  -0.55777273  -0.5373611   -0.52777734
  -0.50925339  -0.4835757   -0.4734018   -0.45965775  -0.45443207
  -0.43909379  -0.43338153  -0.41928153  -0.40394818  -0.39822222
  -0.39275292  -0.38824756  -0.36785196  -0.36436305  -0.34878706
  -0.34844746  -0.33970994  -0.33330437  -0.32342699  -0.31795684
  -0.3050461   -0.2962251   -0.28887381  -0.27465593  -0.26652096
  -0.25392297  -0.24941575  -0.23304367  -0.21506491  -0.20782196
  -0.17099696  -0.15380886  -0.11658708  -0.01404957   0.02525246
   0.04375642   0.07835808   0.11602918   0.12490184   0.17887839
   0.19579343   0.21524682   0.23359566   0.26111036   0.26643347
   0.29604325   0.30758642   0.32209317   0.33249095   0.3511451
   0.3603642    0.38616713   0.38803249   0.38988054   0.40337138
   0.41663672   0.42512784   0.4400619    0.45455719   0.47431919
   0.47769953   0.50753368   0.53143219   0.53460333   0.55173972
   0.56910547   0.58749699   0.61317969   0.61602869   0.65112263
   0.66348877   0.67159378   0.69344933   0.71498929   0.736929
   0.76054166   0.79780902   0.8044133    0.83420011   0.8511256
   0.8743134    0.88903968   0.96187482   1.05473614]
nelec by numeric integration = 146.0000028067444
    CPU time for vxc     38.49 sec, wall time     15.89 sec
E1 = -4110.471164073268  Ecoul = 1900.0451322110137  Exc = -124.75002840565415
cycle= 6 E= -835.78676486169  delta_E= -0.000138  |g|= 0.00954  |ddm|= 0.0444
    CPU time for cycle= 6     38.90 sec, wall time     15.95 sec
  HOMO = -0.116259642989461  LUMO = -0.0136421686659802
  mo_energy =
[-10.02705096 -10.02637432 -10.02523366 -10.0247904  -10.02472202
 -10.02196212 -10.02132371 -10.01971371 -10.01966781 -10.01900974
 -10.01804801 -10.0173471  -10.01724613 -10.01459269 -10.01264104
 -10.0103234  -10.00957694 -10.00834805 -10.00718326 -10.00608959
 -10.00392234  -9.99797133  -0.85325085  -0.83581708  -0.81596927
  -0.79478408  -0.77366121  -0.76000481  -0.74550437  -0.72663735
  -0.68780972  -0.68446215  -0.6571928   -0.62897734  -0.60131962
  -0.58518453  -0.57862046  -0.557275    -0.53733552  -0.52745869
  -0.50895471  -0.48336105  -0.4734233   -0.45942931  -0.45422939
  -0.43886745  -0.43318898  -0.41918854  -0.40356493  -0.39799472
  -0.39250433  -0.38787959  -0.36786739  -0.36399749  -0.34843733
  -0.34819858  -0.33939016  -0.33325305  -0.32323733  -0.31776601
  -0.30466669  -0.29598241  -0.28859911  -0.27443527  -0.26620667
  -0.2535533   -0.24902593  -0.23256866  -0.21495469  -0.20733994
  -0.1705656   -0.15353738  -0.11625964  -0.01364217   0.0255802
   0.0441312    0.0789069    0.11626065   0.12555461   0.17908394
   0.19597473   0.21529218   0.23359569   0.26099804   0.2666019
   0.29637423   0.30784401   0.32209244   0.33289726   0.35158338
   0.36090921   0.38668965   0.38788605   0.39040502   0.40339999
   0.4169411    0.42542607   0.44068744   0.45515836   0.47430623
   0.47770765   0.50793266   0.53185692   0.53504817   0.55237147
   0.56937333   0.58784609   0.61370353   0.61617672   0.65151353
   0.66387601   0.67220753   0.69401699   0.71528641   0.73730211
   0.76080852   0.79822029   0.80487465   0.83450545   0.85083243
   0.87468832   0.88929293   0.96175285   1.05391975]
nelec by numeric integration = 146.00000280646378
    CPU time for vxc     38.17 sec, wall time     15.76 sec
E1 = -4110.432303854234  Ecoul = 1900.0059191752018  Exc = -124.74970867179037
cycle= 7 E= -835.786797944605  delta_E= -3.31e-05  |g|= 0.00178  |ddm|= 0.0162
    CPU time for cycle= 7     38.77 sec, wall time     15.85 sec
  HOMO = -0.116273815338418  LUMO = -0.0136266561452978
  mo_energy =
[-10.02708055 -10.02660245 -10.02515496 -10.02500601 -10.02480637
 -10.02212196 -10.02113981 -10.01984307 -10.01947015 -10.01893166
 -10.0179231  -10.01727772 -10.01716991 -10.01440764 -10.01269039
 -10.00991878 -10.00960971 -10.00837071 -10.00745555 -10.00639942
 -10.00382826  -9.99803553  -0.85324611  -0.83585883  -0.81595525
  -0.79479554  -0.77368323  -0.76003581  -0.74552884  -0.72663393
  -0.68779018  -0.68449268  -0.65718369  -0.62896166  -0.60130814
  -0.58519379  -0.5786699   -0.55730326  -0.5373453   -0.52745659
  -0.50894889  -0.4833582   -0.47341539  -0.45943287  -0.45421269
  -0.43887475  -0.43319369  -0.41919597  -0.40354794  -0.39798072
  -0.39253158  -0.38792051  -0.36786889  -0.36398691  -0.34846805
  -0.34822648  -0.33942622  -0.33321244  -0.32322298  -0.3177631
  -0.30468329  -0.29598486  -0.28863626  -0.27444054  -0.26621921
  -0.25358353  -0.24905028  -0.23259385  -0.21496135  -0.2073485
  -0.17056995  -0.15354319  -0.11627382  -0.01362666   0.02559576
   0.04413938   0.07887233   0.1162538    0.12551014   0.17907849
   0.19596116   0.21531216   0.23359375   0.26099607   0.26658701
   0.2963822    0.30786895   0.32208821   0.33284392   0.35148342
   0.36088596   0.38662096   0.38790013   0.39037839   0.40342808
   0.4169694    0.42540582   0.44065281   0.45517653   0.47435637
   0.47777108   0.50792871   0.53182966   0.53500739   0.55234035
   0.56936487   0.58782239   0.61368386   0.61617992   0.65155364
   0.66388489   0.672181     0.69400473   0.71531828   0.7372678
   0.76078787   0.79825962   0.80486809   0.83452367   0.85085256
   0.87468214   0.88922904   0.96171654   1.05392301]
nelec by numeric integration = 146.00000280656027
    CPU time for vxc     37.98 sec, wall time     15.77 sec
E1 = -4110.43764763411  Ecoul = 1900.0112467847512  Exc = -124.74969352301162
cycle= 8 E= -835.786798966153  delta_E= -1.02e-06  |g|= 0.000482  |ddm|= 0.00296
    CPU time for cycle= 8     38.50 sec, wall time     15.85 sec
  HOMO = -0.116289064375259  LUMO = -0.0136266472550906
  mo_energy =
[-10.0271481  -10.02649545 -10.02510532 -10.02504172 -10.02486893
 -10.02214731 -10.02118289 -10.01980459 -10.01951468 -10.01900949
 -10.01785308 -10.01734392 -10.01715312 -10.01434989 -10.01268076
 -10.00996977 -10.00953928 -10.00839517 -10.00751528 -10.00634994
 -10.00388801  -9.99808173  -0.85327317  -0.83584296  -0.81597754
  -0.79479989  -0.77367933  -0.76003516  -0.74553864  -0.72663544
  -0.68781119  -0.68448784  -0.65720051  -0.62896959  -0.6013162
  -0.58519709  -0.57866491  -0.55730341  -0.53735924  -0.52745543
  -0.50893687  -0.48337604  -0.47343871  -0.4594314   -0.45422379
  -0.43888436  -0.43320125  -0.41920675  -0.40354208  -0.39800147
  -0.39253394  -0.38790266  -0.36788985  -0.36398133  -0.34846241
  -0.34821787  -0.33942478  -0.33323932  -0.32324094  -0.31777881
  -0.30466399  -0.29598557  -0.28863561  -0.27445021  -0.26623034
  -0.25357654  -0.24903618  -0.23260094  -0.21496966  -0.20734339
  -0.17058175  -0.15355107  -0.11628906  -0.01362665   0.02559579
   0.04412761   0.07888885   0.11626161   0.12550725   0.17905735
   0.19595873   0.21530263   0.23358977   0.26098417   0.26657404
   0.296399     0.30788183   0.32206866   0.33284205   0.35151177
   0.36089167   0.38663962   0.3878805    0.39038143   0.40340909
   0.41696276   0.42539909   0.44066045   0.45514328   0.47434558
   0.47776699   0.50792098   0.5318175    0.53501706   0.55234554
   0.56935556   0.58784281   0.61365654   0.61617053   0.65154303
   0.66387744   0.67216712   0.69397519   0.71532085   0.73725529
   0.76078415   0.79824889   0.80484723   0.83455646   0.85081519
   0.87471385   0.88923773   0.96169695   1.05387495]
nelec by numeric integration = 146.00000280646685
    CPU time for vxc     38.11 sec, wall time     15.74 sec
E1 = -4110.437971698861  Ecoul = 1900.011602984562  Exc = -124.74972573407803
cycle= 9 E= -835.786799042159  delta_E= -7.6e-08  |g|= 0.000248  |ddm|= 0.00108
    CPU time for cycle= 9     38.71 sec, wall time     15.84 sec
  HOMO = -0.116294242282419  LUMO = -0.0136272998315322
  mo_energy =
[-10.02712121 -10.02653619 -10.02507684 -10.02507322 -10.0248437
 -10.02213369 -10.02116952 -10.01982345 -10.01951157 -10.01898706
 -10.01790055 -10.0173189  -10.01716006 -10.01443049 -10.01270971
 -10.00998107 -10.00955939 -10.00838122 -10.00746052 -10.00634502
 -10.00388996  -9.99808218  -0.85326565  -0.83585534  -0.81597201
  -0.79480114  -0.77368238  -0.76004104  -0.74553624  -0.72664542
  -0.6878077   -0.68449114  -0.65720077  -0.62897049  -0.60132134
  -0.58520107  -0.57867107  -0.55730951  -0.53735505  -0.52746171
  -0.5089479   -0.48337197  -0.47343018  -0.45943698  -0.45422162
  -0.43888538  -0.43320042  -0.41920979  -0.40355479  -0.39799816
  -0.39252824  -0.3879122   -0.36788211  -0.36398709  -0.34846456
  -0.34822483  -0.33942152  -0.33323288  -0.32323463  -0.31777418
  -0.30467397  -0.29598923  -0.288636    -0.27444729  -0.26622542
  -0.25358365  -0.24904948  -0.23259907  -0.21496249  -0.20735245
  -0.17058034  -0.15355594  -0.11629424  -0.0136273    0.02559114
   0.04412895   0.07887279   0.11625583   0.12550613   0.17906663
   0.19596081   0.21530634   0.23358965   0.2609908    0.26657604
   0.29639255   0.30787782   0.32207614   0.33284461   0.35150046
   0.36089502   0.38663175   0.38789207   0.39038422   0.40341194
   0.41695957   0.4254109    0.44065026   0.45515201   0.47433969
   0.47775638   0.5079156    0.53181831   0.53500273   0.5523382
   0.56935379   0.58783092   0.61366527   0.61616445   0.65154067
   0.66387464   0.67216693   0.6939826    0.71531429   0.7372503
   0.760779     0.79824727   0.80484825   0.83452211   0.85082439
   0.87468888   0.88924039   0.96171013   1.05389511]
nelec by numeric integration = 146.00000280651315
    CPU time for vxc     38.56 sec, wall time     15.91 sec
E1 = -4110.437991342542  Ecoul = 1900.0116277242448  Exc = -124.74973085387565
cycle= 10 E= -835.786799065955  delta_E= -2.38e-08  |g|= 5.88e-05  |ddm|= 0.000471
    CPU time for cycle= 10     39.01 sec, wall time     15.99 sec
  HOMO = -0.116296477842813  LUMO = -0.013629089598631
  mo_energy =
[-10.02711332 -10.02653983 -10.02508228 -10.02507436 -10.02483892
 -10.02214161 -10.02117544 -10.01982227 -10.01951204 -10.01898809
 -10.01789838 -10.01731504 -10.01717223 -10.01441601 -10.01269266
 -10.00997564 -10.00956744 -10.00838303 -10.00747041 -10.00635543
 -10.00389817  -9.99809832  -0.85326416  -0.83585705  -0.81597359
  -0.79480342  -0.77368379  -0.7600429   -0.74553851  -0.72664576
  -0.68780939  -0.68449214  -0.65720213  -0.62897066  -0.60132095
  -0.58520277  -0.57867332  -0.5573112   -0.53735448  -0.52746301
  -0.50894757  -0.4833735   -0.47343206  -0.45943753  -0.45422274
  -0.43888601  -0.43320212  -0.41920734  -0.40355606  -0.39799977
  -0.39253071  -0.38791313  -0.36788212  -0.36398892  -0.34846685
  -0.34822611  -0.33942476  -0.33323429  -0.32323623  -0.31777534
  -0.30467454  -0.29598981  -0.28863755  -0.27444887  -0.26622729
  -0.25358546  -0.24905069  -0.23260141  -0.21496528  -0.20735278
  -0.17058279  -0.15355612  -0.11629648  -0.01362909   0.0255915
   0.04412666   0.07887286   0.1162538    0.12550326   0.17906437
   0.19595844   0.2153049    0.23358935   0.26099103   0.26657516
   0.29639112   0.30787701   0.3220757    0.33284029   0.35149835
   0.36089027   0.38662932   0.38788957   0.39038131   0.40341307
   0.41695997   0.42540599   0.44064788   0.45514778   0.47434165
   0.47775928   0.50791464   0.53181786   0.53500359   0.55233669
   0.56935391   0.5878291    0.61366121   0.61616858   0.651538
   0.66387144   0.6721634    0.69397899   0.71531147   0.7372471
   0.76077836   0.798244     0.80484396   0.83452583   0.85082747
   0.87468919   0.88923786   0.96170931   1.05389862]
nelec by numeric integration = 146.00000280651884
    CPU time for vxc     37.96 sec, wall time     15.70 sec
E1 = -4110.438129221517  Ecoul = 1900.0117667817774  Exc = -124.74973203359912
cycle= 11 E= -835.78679906712  delta_E= -1.17e-09  |g|= 3.29e-05  |ddm|= 0.000133
    CPU time for cycle= 11     38.45 sec, wall time     15.78 sec
  HOMO = -0.116295345736036  LUMO = -0.0136273433552884
  mo_energy =
[-10.02711848 -10.02653233 -10.02508014 -10.02507347 -10.02484245
 -10.02213953 -10.02116994 -10.019821   -10.01950791 -10.01898822
 -10.01789366 -10.01731976 -10.017164   -10.01441793 -10.01269725
 -10.00997816 -10.00956445 -10.00838341 -10.00747076 -10.00635029
 -10.003894    -9.9980921   -0.8532658   -0.83585436  -0.81597279
  -0.79480166  -0.77368274  -0.76004137  -0.74553759  -0.72664459
  -0.68780882  -0.68449109  -0.65720139  -0.62896999  -0.60132011
  -0.58520111  -0.57867149  -0.55730995  -0.53735541  -0.5274614
  -0.50894637  -0.4833733   -0.47343192  -0.45943618  -0.45422131
  -0.43888542  -0.43320145  -0.41920845  -0.4035536   -0.39799919
  -0.39253053  -0.38791148  -0.36788296  -0.36398677  -0.34846546
  -0.34822453  -0.33942368  -0.33323426  -0.32323593  -0.31777496
  -0.30467257  -0.29598908  -0.28863696  -0.27444832  -0.26622719
  -0.25358334  -0.24904834  -0.23260038  -0.21496545  -0.20735147
  -0.17058147  -0.15355563  -0.11629535  -0.01362734   0.02559241
   0.04412798   0.07887432   0.11625608   0.12550454   0.17906458
   0.19595927   0.2153054    0.23358975   0.26099002   0.26657542
   0.29639351   0.3078785    0.32207478   0.33284192   0.35150045
   0.36089216   0.38663155   0.38788913   0.39038161   0.40341193
   0.4169624    0.425406     0.44065006   0.45514916   0.47434118
   0.47775899   0.50791581   0.53181797   0.53500455   0.5523381
   0.56935404   0.5878317    0.6136624    0.61616702   0.65154081
   0.66387408   0.67216516   0.69398002   0.71531487   0.73724896
   0.76077877   0.79824698   0.80484643   0.83452746   0.85082483
   0.87469219   0.88923845   0.96170825   1.05389548]
nelec by numeric integration = 146.00000280651707
    CPU time for vxc     38.06 sec, wall time     15.84 sec
E1 = -4110.438043095981  Ecoul = 1900.0116792068015  Exc = -124.74973058456132
cycle= 12 E= -835.786799067523  delta_E= -4.02e-10  |g|= 8.95e-06  |ddm|= 6.38e-05
    CPU time for cycle= 12     38.56 sec, wall time     15.92 sec
  HOMO = -0.116295136831274  LUMO = -0.0136270304590858
  mo_energy =
[-10.02711853 -10.02653338 -10.02507904 -10.02507242 -10.02484245
 -10.02213921 -10.02117041 -10.0198207  -10.01950888 -10.01898709
 -10.01789325 -10.01731831 -10.01716317 -10.01441675 -10.01269818
 -10.00997744 -10.00956308 -10.00838005 -10.00746953 -10.00634947
 -10.00389585  -9.9980923   -0.85326538  -0.83585424  -0.81597242
  -0.79480144  -0.77368246  -0.76004125  -0.74553685  -0.72664419
  -0.68780858  -0.6844907   -0.65720129  -0.62896969  -0.60132
  -0.58520088  -0.57867123  -0.55730967  -0.53735511  -0.52746124
  -0.50894601  -0.48337303  -0.47343172  -0.45943606  -0.45422129
  -0.43888529  -0.43320117  -0.41920835  -0.40355356  -0.39799895
  -0.39253002  -0.38791118  -0.3678825   -0.36398659  -0.34846518
  -0.3482243   -0.3394233   -0.33323409  -0.32323543  -0.31777454
  -0.30467241  -0.29598891  -0.28863658  -0.27444796  -0.26622673
  -0.25358324  -0.24904824  -0.23259973  -0.2149648   -0.20735105
  -0.17058108  -0.15355542  -0.11629514  -0.01362703   0.02559259
   0.0441283    0.07887472   0.1162562    0.12550519   0.1790651
   0.19595967   0.21530566   0.23358996   0.26099031   0.26657573
   0.29639358   0.30787851   0.32207529   0.33284224   0.35150078
   0.36089269   0.38663176   0.38788943   0.39038243   0.40341243
   0.41696219   0.42540675   0.44065026   0.45514938   0.47434128
   0.47775909   0.50791593   0.53181843   0.53500483   0.55233857
   0.56935439   0.58783188   0.61366289   0.61616705   0.65154085
   0.66387424   0.6721655    0.69398048   0.71531495   0.7372488
   0.76077899   0.79824713   0.80484644   0.83452765   0.85082524
   0.87469228   0.88923918   0.96170893   1.05389574]
nelec by numeric integration = 146.00000280651776
    CPU time for vxc     38.20 sec, wall time     15.80 sec
E1 = -4110.438009366278  Ecoul = 1900.0116450965484  Exc = -124.7497302040365
cycle= 13 E= -835.786799067548  delta_E= -2.5e-11  |g|= 4.71e-06  |ddm|= 2e-05
    CPU time for cycle= 13     38.73 sec, wall time     15.88 sec
  HOMO = -0.116295489138326  LUMO = -0.0136274018430206
  mo_energy =
[-10.02711941 -10.02653304 -10.02508003 -10.0250731  -10.02484349
 -10.02213916 -10.02116935 -10.01982095 -10.01950798 -10.01898816
 -10.01789419 -10.01731915 -10.01716415 -10.01441838 -10.01269701
 -10.00997838 -10.00956403 -10.00838361 -10.00747075 -10.00635051
 -10.00389406  -9.99809271  -0.85326598  -0.83585453  -0.81597293
  -0.79480174  -0.77368274  -0.76004149  -0.74553757  -0.72664465
  -0.68780895  -0.68449114  -0.65720155  -0.62897008  -0.60132025
  -0.58520124  -0.57867158  -0.55730997  -0.53735542  -0.52746151
  -0.50894648  -0.48337336  -0.47343204  -0.45943627  -0.45422133
  -0.43888558  -0.43320151  -0.41920855  -0.40355373  -0.39799927
  -0.39253044  -0.38791151  -0.36788304  -0.36398678  -0.34846545
  -0.34822466  -0.33942362  -0.33323431  -0.32323601  -0.31777509
  -0.30467256  -0.29598912  -0.28863696  -0.27444832  -0.26622716
  -0.25358342  -0.24904846  -0.23260038  -0.21496528  -0.20735146
  -0.1705815   -0.15355576  -0.11629549  -0.0136274    0.02559231
   0.04412792   0.07887428   0.11625597   0.12550452   0.17906463
   0.1959593    0.21530539   0.23358958   0.26098994   0.26657528
   0.29639352   0.30787858   0.32207472   0.33284193   0.3515004
   0.36089234   0.38663159   0.38788899   0.39038178   0.40341185
   0.41696229   0.42540628   0.44065001   0.45514915   0.47434101
   0.47775887   0.50791571   0.53181791   0.53500441   0.55233803
   0.56935392   0.58783159   0.61366231   0.61616697   0.65154072
   0.66387397   0.67216507   0.69397998   0.71531477   0.73724877
   0.76077868   0.79824691   0.80484632   0.83452712   0.85082472
   0.87469195   0.88923854   0.96170822   1.05389499]
nelec by numeric integration = 146.0000028065175
    CPU time for vxc     38.13 sec, wall time     15.78 sec
E1 = -4110.43805207213  Ecoul = 1900.0116887810889  Exc = -124.74973118271043
Extra cycle  E= -835.786799067533  delta_E= 1.46e-11  |g|= 8.53e-06  |ddm|= 1.95e-05
    CPU time for scf_cycle    588.99 sec, wall time    240.28 sec
    CPU time for SCF    588.99 sec, wall time    240.28 sec
converged SCF energy = -835.786799067533
nelec by numeric integration = 146.0000028065175
    CPU time for vxc     37.88 sec, wall time     15.63 sec
 ** Mulliken pop  **
pop of  0 C 1s            1.99108
pop of  0 C 2s            1.17716
pop of  0 C 2px           0.96871
pop of  0 C 2py           0.94430
pop of  0 C 2pz           0.92349
pop of  1 C 1s            1.99122
pop of  1 C 2s            1.20680
pop of  1 C 2px           0.94850
pop of  1 C 2py           0.92050
pop of  1 C 2pz           0.90425
pop of  2 C 1s            1.99113
pop of  2 C 2s            1.16311
pop of  2 C 2px           0.95416
pop of  2 C 2py           0.95556
pop of  2 C 2pz           0.98800
pop of  3 C 1s            1.99071
pop of  3 C 2s            1.11155
pop of  3 C 2px           1.00509
pop of  3 C 2py           0.98446
pop of  3 C 2pz           1.02529
pop of  4 C 1s            1.99099
pop of  4 C 2s            1.12055
pop of  4 C 2px           1.03465
pop of  4 C 2py           0.96876
pop of  4 C 2pz           1.03993
pop of  5 C 1s            1.99103
pop of  5 C 2s            1.16428
pop of  5 C 2px           1.00673
pop of  5 C 2py           0.94552
pop of  5 C 2pz           1.00574
pop of  6 C 1s            1.99114
pop of  6 C 2s            1.17929
pop of  6 C 2px           0.95535
pop of  6 C 2py           0.95035
pop of  6 C 2pz           0.93863
pop of  7 C 1s            1.99043
pop of  7 C 2s            1.07856
pop of  7 C 2px           1.04512
pop of  7 C 2py           1.04908
pop of  7 C 2pz           0.99267
pop of  8 C 1s            1.99091
pop of  8 C 2s            1.16351
pop of  8 C 2px           0.98293
pop of  8 C 2py           0.92240
pop of  8 C 2pz           0.92462
pop of  9 C 1s            1.99059
pop of  9 C 2s            1.12481
pop of  9 C 2px           0.97570
pop of  9 C 2py           0.96490
pop of  9 C 2pz           0.94513
pop of  10 C 1s           1.99116
pop of  10 C 2s           1.19637
pop of  10 C 2px          0.96738
pop of  10 C 2py          0.93818
pop of  10 C 2pz          0.95946
pop of  11 C 1s           1.99069
pop of  11 C 2s           1.13505
pop of  11 C 2px          1.03844
pop of  11 C 2py          0.94305
pop of  11 C 2pz          1.01400
pop of  12 C 1s           1.99063
pop of  12 C 2s           1.14369
pop of  12 C 2px          0.99922
pop of  12 C 2py          0.94590
pop of  12 C 2pz          0.93529
pop of  13 C 1s           1.99071
pop of  13 C 2s           1.15144
pop of  13 C 2px          0.96845
pop of  13 C 2py          0.92216
pop of  13 C 2pz          0.94746
pop of  14 C 1s           1.99111
pop of  14 C 2s           1.12378
pop of  14 C 2px          1.00197
pop of  14 C 2py          0.95664
pop of  14 C 2pz          0.98168
pop of  15 C 1s           1.99085
pop of  15 C 2s           1.10568
pop of  15 C 2px          1.00985
pop of  15 C 2py          0.98991
pop of  15 C 2pz          0.99925
pop of  16 C 1s           1.99094
pop of  16 C 2s           1.09607
pop of  16 C 2px          0.97934
pop of  16 C 2py          0.98830
pop of  16 C 2pz          0.98010
pop of  17 C 1s           1.99149
pop of  17 C 2s           1.13505
pop of  17 C 2px          0.99014
pop of  17 C 2py          0.97104
pop of  17 C 2pz          0.89654
pop of  18 C 1s           1.99066
pop of  18 C 2s           1.12103
pop of  18 C 2px          0.99961
pop of  18 C 2py          0.96906
pop of  18 C 2pz          1.01769
pop of  19 C 1s           1.99133
pop of  19 C 2s           1.10507
pop of  19 C 2px          0.99714
pop of  19 C 2py          0.95944
pop of  19 C 2pz          0.99515
pop of  20 C 1s           1.99075
pop of  20 C 2s           1.12275
pop of  20 C 2px          0.99572
pop of  20 C 2py          0.97919
pop of  20 C 2pz          0.96702
pop of  21 C 1s           1.99095
pop of  21 C 2s           1.04315
pop of  21 C 2px          1.01839
pop of  21 C 2py          1.02894
pop of  21 C 2pz          1.02503
pop of  22 H 1s           0.90284
pop of  23 H 1s           0.88919
pop of  24 H 1s           0.87785
pop of  25 H 1s           0.90150
pop of  26 H 1s           0.94638
pop of  27 H 1s           0.88319
pop of  28 H 1s           0.95037
pop of  29 H 1s           0.89332
pop of  30 H 1s           0.94466
pop of  31 H 1s           0.92729
pop of  32 H 1s           0.89357
pop of  33 H 1s           0.93108
pop of  34 H 1s           0.92314
pop of  35 H 1s           0.91975
 ** Mulliken atomic charges  **
charge of    0C =     -0.00474
charge of    1C =      0.02874
charge of    2C =     -0.05195
charge of    3C =     -0.11710
charge of    4C =     -0.15487
charge of    5C =     -0.11329
charge of    6C =     -0.01476
charge of    7C =     -0.15586
charge of    8C =      0.01564
charge of    9C =     -0.00112
charge of   10C =     -0.05255
charge of   11C =     -0.12124
charge of   12C =     -0.01474
charge of   13C =      0.01978
charge of   14C =     -0.05516
charge of   15C =     -0.09554
charge of   16C =     -0.03476
charge of   17C =      0.01574
charge of   18C =     -0.09804
charge of   19C =     -0.04813
charge of   20C =     -0.05543
charge of   21C =     -0.10646
charge of   22H =      0.09716
charge of   23H =      0.11081
charge of   24H =      0.12215
charge of   25H =      0.09850
charge of   26H =      0.05362
charge of   27H =      0.11681
charge of   28H =      0.04963
charge of   29H =      0.10668
charge of   30H =      0.05534
charge of   31H =      0.07271
charge of   32H =      0.10643
charge of   33H =      0.06892
charge of   34H =      0.07686
charge of   35H =      0.08025
Dipole moment(X, Y, Z, Debye): -0.10548,  0.30271,  0.29768
nelec by numeric integration = 146.0000028065175
    CPU time for vxc     38.04 sec, wall time     15.82 sec
E1 = -4110.43805207213  Ecoul = 1900.011688781089  Exc = -124.7497311827104
nelec by numeric integration = 146.0000028065175
    CPU time for vxc     37.69 sec, wall time     15.65 sec
E1 = -4110.43805207213  Ecoul = 1900.0116887810898  Exc = -124.74973118271042
