System: uname_result(system='Linux', node='cosmopc18', release='5.15.0-97-generic', version='#107-Ubuntu SMP Wed Feb 7 13:26:48 UTC 2024', machine='x86_64')  Threads 4
Python 3.11.8 (main, Feb 26 2024, 21:39:34) [GCC 11.2.0]
numpy 1.26.4  scipy 1.11.4
Date: Tue Apr  9 14:00:02 2024
PySCF version 2.3.0
PySCF path  /home/saade/miniconda3/envs/tutorial/lib/python3.11/site-packages/pyscf

[ENV] PYSCFAD_BACKEND torch
[CONFIG] conf_file None
[INPUT] verbose = 5
[INPUT] max_memory = 4000 
[INPUT] num. atoms = 36
[INPUT] num. electrons = 146
[INPUT] charge = 0
[INPUT] spin (= nelec alpha-beta = 2S) = 0
[INPUT] symmetry False subgroup None
[INPUT] Mole.unit = angstrom
[INPUT] Symbol           X                Y                Z      unit          X                Y                Z       unit  Magmom
[INPUT]  1 C     -0.092346000000   3.582276000000   0.879339000000 AA   -0.174508648699   6.769520542602   1.661709880649 Bohr   0.0
[INPUT]  2 C      0.085348000000   3.617271000000  -0.670902000000 AA    0.161284345279   6.835651508332  -1.267821036423 Bohr   0.0
[INPUT]  3 C      0.073578000000   4.810505000000   1.323177000000 AA    0.139042268793   9.090536970851   2.500442144324 Bohr   0.0
[INPUT]  4 C      0.001657000000   2.394500000000   1.431594000000 AA    0.003131276188   4.524949205271   2.705320581571 Bohr   0.0
[INPUT]  5 C     -0.067259000000   4.851299000000  -1.387819000000 AA   -0.127101089412   9.167626458376  -2.622597820468 Bohr   0.0
[INPUT]  6 C      0.175655000000   2.487293000000  -1.238934000000 AA    0.331939842410   4.700302561548  -2.341245946412 Bohr   0.0
[INPUT]  7 C      0.012279000000   6.069346000000  -0.784388000000 AA    0.023203947084  11.469401695224  -1.482278495395 Bohr   0.0
[INPUT]  8 C      0.082303000000   6.151221000000   0.761539000000 AA    0.155530129230  11.624123021673   1.439100143175 Bohr   0.0
[INPUT]  9 C     -0.038071000000   0.986983000000   0.631171000000 AA   -0.071943763288   1.865127559602   1.192740327768 Bohr   0.0
[INPUT] 10 C     -0.076518000000   1.383725000000  -0.684072000000 AA   -0.144598063599   2.614861281714  -1.292708729483 Bohr   0.0
[INPUT] 11 C      0.023393000000   0.040505000000   1.499953000000 AA    0.044206363232   0.076543356676   2.834500369720 Bohr   0.0
[INPUT] 12 C      0.025725000000  -0.011877000000  -1.310342000000 AA    0.048613204554  -0.022444277181  -2.476187509515 Bohr   0.0
[INPUT] 13 C      0.041803000000  -1.328277000000   0.781019000000 AA    0.078996221185  -2.510079747559   1.475912008082 Bohr   0.0
[INPUT] 14 C      0.008135000000  -1.416307000000  -0.977707000000 AA    0.015372922023  -2.676432338304  -1.847598460070 Bohr   0.0
[INPUT] 15 C     -0.165489000000  -2.404997000000   1.316081000000 AA   -0.312728886628  -4.544785660401   2.487032647744 Bohr   0.0
[INPUT] 16 C     -0.162272000000  -2.477014000000  -1.485228000000 AA   -0.306649637685  -4.680878066713  -2.806674152536 Bohr   0.0
[INPUT] 17 C      0.011827000000  -3.604703000000   0.770728000000 AA    0.022349790875  -6.811901430398   1.456464836534 Bohr   0.0
[INPUT] 18 C     -0.001448000000  -3.853656000000  -0.704528000000 AA   -0.002736323428  -7.282354418287  -1.331364967088 Bohr   0.0
[INPUT] 19 C      0.061084000000  -4.887342000000   1.501923000000 AA    0.115432030593  -9.235737857084   2.838223130185 Bohr   0.0
[INPUT] 20 C      0.011381000000  -4.944973000000  -1.410471000000 AA    0.021506973024  -9.344644663369  -2.665403896641 Bohr   0.0
[INPUT] 21 C      0.017632000000  -6.176298000000   0.585091000000 AA    0.033319651028 -11.671511683699   1.105661747948 Bohr   0.0
[INPUT] 22 C     -0.002097000000  -6.191051000000  -0.860544000000 AA   -0.003962755683 -11.699390813215  -1.626192478138 Bohr   0.0
[INPUT] 23 H     -0.151677000000   5.086839000000   2.427209000000 AA   -0.286627989396   9.612732549756   4.586760257079 Bohr   0.0
[INPUT] 24 H     -0.088467000000   2.456319000000   2.349892000000 AA   -0.167178401062   4.641770184566   4.440652302306 Bohr   0.0
[INPUT] 25 H      0.163109000000   4.766406000000  -2.522129000000 AA    0.308231338452   9.007201938484  -4.766133060823 Bohr   0.0
[INPUT] 26 H      0.042191000000   2.360571000000  -2.469153000000 AA    0.079729434922   4.460832687591  -4.666022929648 Bohr   0.0
[INPUT] 27 H      0.014513000000   7.001858000000  -1.172297000000 AA    0.027425595246  13.231593983095  -2.215320266649 Bohr   0.0
[INPUT] 28 H      0.031608000000   7.000619000000   1.224836000000 AA    0.059730463345  13.229252612427   2.314604587508 Bohr   0.0
[INPUT] 29 H     -0.073871000000  -0.079626000000   2.415720000000 AA   -0.139595958548  -0.150471332395   4.565049193634 Bohr   0.0
[INPUT] 30 H      0.052769000000   0.035619000000  -2.466300000000 AA    0.099718957867   0.067310154831  -4.660631541015 Bohr   0.0
[INPUT] 31 H      0.039675000000  -2.506320000000   2.638722000000 AA    0.074974883992  -4.736258380520   4.986461898865 Bohr   0.0
[INPUT] 32 H     -0.104008000000  -2.521992000000  -2.522420000000 AA   -0.196546634764  -4.765874168344  -4.766682971125 Bohr   0.0
[INPUT] 33 H     -0.047683000000  -4.992931000000   2.405069000000 AA   -0.090107810798  -9.435272148851   4.544921720682 Bohr   0.0
[INPUT] 34 H      0.010054000000  -5.045191000000  -2.445895000000 AA    0.018999306456  -9.534029236121  -4.622071679443 Bohr   0.0
[INPUT] 35 H      0.094468000000  -7.020539000000   1.293859000000 AA    0.178518647535 -13.266895956828   2.445039153804 Bohr   0.0
[INPUT] 36 H      0.094053000000  -7.058179000000  -1.106742000000 AA    0.177734411194 -13.338025248157  -2.091439270553 Bohr   0.0
[INPUT] ---------------- BASIS SET ---------------- 
[INPUT] l, kappa, [nprim/nctr], expnt,             c_1 c_2 ...
[INPUT] H
[INPUT] 0    0    [3    /1   ]  3.42525091        0.15432897
                                0.62391373        0.53532814
                                0.1688554         0.44463454
[INPUT] C
[INPUT] 0    0    [3    /1   ]  71.616837         0.15432897
                                13.045096         0.53532814
                                3.5305122         0.44463454
[INPUT] 0    0    [3    /1   ]  2.9412494         -0.09996723
                                0.6834831         0.39951283
                                0.2222899         0.70011547
[INPUT] 1    0    [3    /1   ]  2.9412494         0.15591627
                                0.6834831         0.60768372
                                0.2222899         0.39195739

nuclear repulsion = 1495.3793874334
number of shells = 80
number of NR pGTOs = 372
number of NR cGTOs = 124
basis = sto3g
ecp = {}
CPU time:     37820.93
atom C rad-grids = 99, ang-grids = [ 50  50  50  50  50  50  50  50  50  50  50  50  50  50  50  50  50  50
  50  50  50  50  50  50  50  50  50  50  50  50  50  86  86  86  86  86
  86  86  86  86  86  86  86 434 434 434 434 434 434 434 434 434 590 590
 590 590 590 590 590 590 590 590 590 590 590 590 590 590 590 590 590 590
 590 590 590 590 590 590 590 434 434 434 434 434 434 434 434 434 434 434
 434 434 434 434 434 434 434 434 434]
atom H rad-grids = 99, ang-grids = [ 50  50  50  50  50  50  50  50  50  50  50  50  50  50  50  50  50  50
  50  50  50  50  50  50  50  50  50  50  86  86  86  86  86  86  86 434
 434 434 434 434 434 434 434 590 590 590 590 590 590 590 590 590 590 590
 590 590 590 590 590 590 590 590 590 590 590 590 590 590 590 434 434 434
 434 434 434 434 434 434 434 434 434 434 434 434 434 434 434 434 434 434
 434 434 434 434 434 434 434 434 434]
tot_boxes 5270, boxes in each direction [ 8 29 15]
Padding 0 grids
tot grids = 1157832


******** <class 'pyscf.dft.rks.RKS'> ********
method = RKS
initial guess = minao
damping factor = 0
level_shift factor = 0
DIIS = <class 'pyscf.scf.diis.CDIIS'>
diis_start_cycle = 1
diis_space = 8
SCF conv_tol = 1e-10
SCF conv_tol_grad = None
SCF max_cycles = 50
direct_scf = True
direct_scf_tol = 1e-13
chkfile to save SCF result = /home/saade/mlelec/tutorials/tmpkunyr_x9
max_memory 4000 MB (current use 638 MB)
XC library pyscf.dft.libxc version 6.1.0
    S. Lehtola, C. Steigemann, M. J.T. Oliveira, and M. A.L. Marques.,  SoftwareX 7, 1–5 (2018)
XC functionals = b3lypg
    P. J. Stephens, F. J. Devlin, C. F. Chabalowski, and M. J. Frisch.,  J. Phys. Chem. 98, 11623 (1994)
radial grids: 
    Treutler-Ahlrichs [JCP 102, 346 (1995); DOI:10.1063/1.469408] (M4) radial grids
    
becke partition: Becke, JCP 88, 2547 (1988); DOI:10.1063/1.454033
pruning grids: <function nwchem_prune at 0x7f9db5616ca0>
grids dens level: 3
symmetrized grids: False
atomic radii adjust function: <function treutler_atomic_radii_adjust at 0x7f9db5617380>
User specified grid scheme (99, 590)
small_rho_cutoff = 1e-07
Set gradient conv threshold to 1e-05
Initial guess from minao.
nelec by numeric integration = 145.26601468469184
    CPU time for vxc     37.53 sec, wall time     15.78 sec
E1 = -4090.457176543316  Ecoul = 1879.6791761601357  Exc = -126.15542334346881
init E= -841.554036293251
cond(S) = 20.963932297097312
    CPU time for initialize scf     47.47 sec, wall time     18.20 sec
  HOMO = -0.210037227742554  LUMO = -0.160996426527538
  mo_energy =
[-10.13387146 -10.1288499  -10.12858106 -10.12540937 -10.12514438
 -10.12178246 -10.11693979 -10.11565115 -10.11503692 -10.11484748
 -10.10895317 -10.10728041 -10.10685316 -10.09920228 -10.09564615
 -10.09390707 -10.08871684 -10.0881018  -10.08540703 -10.08487989
 -10.07928184 -10.06558362  -1.1002896   -1.06983481  -1.01696016
  -0.98889505  -0.97462865  -0.95787159  -0.92537112  -0.87920808
  -0.86058519  -0.85428591  -0.81039743  -0.7830945   -0.73464253
  -0.71737445  -0.69563495  -0.68988105  -0.66565509  -0.63463535
  -0.60386856  -0.60119566  -0.5760357   -0.56429312  -0.55860217
  -0.54578062  -0.53095146  -0.5250157   -0.50019599  -0.4865654
  -0.48057255  -0.47074596  -0.45531148  -0.45180057  -0.44076031
  -0.43654647  -0.43182631  -0.41510551  -0.40408165  -0.39827597
  -0.38584328  -0.37971499  -0.37486741  -0.37191862  -0.35921444
  -0.33107063  -0.31523458  -0.30590326  -0.28342165  -0.27496381
  -0.26603147  -0.25794987  -0.21003723  -0.16099643  -0.09980503
  -0.08181546  -0.04977142  -0.03362506   0.01643545   0.02933102
   0.0373018    0.04343539   0.08115131   0.09033915   0.10696485
   0.13820508   0.1553902    0.17032956   0.17974413   0.19237982
   0.21897127   0.22634201   0.23936941   0.26322118   0.27259666
   0.28254834   0.29198653   0.31285801   0.31978057   0.34036249
   0.34861283   0.3533351    0.3862612    0.39071443   0.39710161
   0.452574     0.4743032    0.4778983    0.49176702   0.49945441
   0.52861618   0.55830016   0.57118089   0.60663697   0.63356174
   0.65237435   0.67076117   0.67424252   0.68390251   0.73291503
   0.73981475   0.76270089   0.82171722   0.85157721]
nelec by numeric integration = 146.00000156662347
    CPU time for vxc     38.82 sec, wall time     16.10 sec
E1 = -4105.076402181923  Ecoul = 1898.8659319704427  Exc = -124.78739100009332
cycle= 1 E= -835.618473778175  delta_E= 5.94  |g|= 0.308  |ddm|= 9.31
    CPU time for cycle= 1     39.24 sec, wall time     16.17 sec
  HOMO = -0.0938344873428181  LUMO = -0.0111612756318211
  mo_energy =
[-10.07001879 -10.03545637 -10.03267198 -10.02767274 -10.02654786
 -10.02498055 -10.02158016 -10.02070926 -10.00223051 -10.00133679
  -9.99901328  -9.99060791  -9.98818484  -9.98500084  -9.97996466
  -9.96921891  -9.96401962  -9.95390645  -9.95157481  -9.93018553
  -9.9208652   -9.88199745  -0.83310605  -0.81961275  -0.79199187
  -0.77326279  -0.75000123  -0.73189487  -0.71833229  -0.70001068
  -0.6906722   -0.67109359  -0.64595216  -0.62394764  -0.58673056
  -0.57687703  -0.56640187  -0.55082983  -0.52946899  -0.50799171
  -0.49301141  -0.48010626  -0.46310718  -0.45950486  -0.44471044
  -0.42977784  -0.42541334  -0.41496525  -0.38995626  -0.38046045
  -0.3591946   -0.35656173  -0.35337447  -0.34332271  -0.33737324
  -0.33009684  -0.32527271  -0.31707198  -0.30349617  -0.29401773
  -0.28870554  -0.28217192  -0.26800184  -0.25754153  -0.22857711
  -0.22308945  -0.20619379  -0.20246892  -0.18546047  -0.17644383
  -0.16057286  -0.14068922  -0.09383449  -0.01116128   0.05829746
   0.06057021   0.08003192   0.11986631   0.18096427   0.18349366
   0.18723608   0.21419698   0.23779384   0.24951939   0.2629153
   0.30428851   0.32092794   0.32994701   0.3346381    0.34051977
   0.36125863   0.36435817   0.37790496   0.38601993   0.41066052
   0.41185382   0.42804605   0.46952412   0.47508154   0.48550655
   0.49390303   0.50298666   0.51962072   0.54849436   0.55394377
   0.58399461   0.58736689   0.60311635   0.64697124   0.65883417
   0.68092151   0.70816873   0.72744672   0.75103377   0.7930289
   0.80535267   0.82197247   0.84864736   0.86288127   0.8815631
   0.91568917   0.94203826   0.99387071   1.0327573 ]
nelec by numeric integration = 146.00000126746352
    CPU time for vxc     38.03 sec, wall time     15.81 sec
E1 = -4099.839511226572  Ecoul = 1893.5907135632094  Exc = -124.66393391864732
cycle= 2 E= -835.533344148611  delta_E= 0.0851  |g|= 0.561  |ddm|= 1.42
    CPU time for cycle= 2     38.46 sec, wall time     15.88 sec
  HOMO = -0.101763249950533  LUMO = -0.018767742355228
  mo_energy =
[-10.03902533 -10.03856921 -10.03016875 -10.02713696 -10.02597623
 -10.02144335 -10.01857906 -10.0109814  -10.00922001 -10.00451001
 -10.00094996 -10.00006538  -9.99915388  -9.99890382  -9.99839137
  -9.99789288  -9.99512337  -9.99376125  -9.9910771   -9.98231305
  -9.9812236   -9.96387637  -0.85565233  -0.82671903  -0.79893771
  -0.77991181  -0.76641596  -0.75274652  -0.73914879  -0.70266661
  -0.68961563  -0.6864105   -0.6555759   -0.63055335  -0.60009052
  -0.58109722  -0.56975352  -0.56319135  -0.54564251  -0.50966301
  -0.49660291  -0.49408805  -0.469994    -0.46056682  -0.45906159
  -0.44650135  -0.43299139  -0.41973257  -0.40480984  -0.3873631
  -0.37244045  -0.37209484  -0.35929227  -0.35157938  -0.350177
  -0.33856352  -0.33473074  -0.32110771  -0.3102576   -0.30131564
  -0.2901639   -0.28817266  -0.27842487  -0.26465929  -0.25714043
  -0.24211551  -0.22351645  -0.21934622  -0.18785478  -0.17897017
  -0.16678852  -0.15854083  -0.10176325  -0.01876774   0.04013765
   0.05425703   0.08558308   0.10359498   0.15739223   0.17627785
   0.18523129   0.19925475   0.22682942   0.23388242   0.2499065
   0.2851641    0.30217965   0.31791023   0.32201583   0.33766698
   0.35669387   0.36517072   0.3888434    0.39886234   0.40254768
   0.42578734   0.43669071   0.44920527   0.46072638   0.48263553
   0.48814935   0.49446371   0.52209955   0.53036617   0.54388412
   0.58438449   0.5958812    0.6092025    0.62437649   0.6317795
   0.67393891   0.6943447    0.71327789   0.73628969   0.77423185
   0.78762589   0.80532985   0.81152751   0.82771174   0.87522368
   0.88748092   0.91568997   0.97040544   1.01963051]
nelec by numeric integration = 146.00000153496052
    CPU time for vxc     38.32 sec, wall time     15.92 sec
E1 = -4101.580253060907  Ecoul = 1895.2460473457297  Exc = -124.68107786223234
cycle= 3 E= -835.635896144011  delta_E= -0.103  |g|= 0.229  |ddm|= 1.33
    CPU time for cycle= 3     38.85 sec, wall time     16.00 sec
  HOMO = -0.112786851373802  LUMO = -0.0346675856033711
  mo_energy =
[-10.04263206 -10.04184446 -10.03781846 -10.03365797 -10.0328828
 -10.03187744 -10.0298364  -10.02967904 -10.02563545 -10.02132602
 -10.02111157 -10.01748108 -10.01722744 -10.01335501 -10.00883376
 -10.00797793 -10.00759169  -9.99999462  -9.99692331  -9.99575899
  -9.9917446   -9.99066765  -0.86119516  -0.84235787  -0.80453766
  -0.78713223  -0.78113531  -0.76539545  -0.7390265   -0.70923748
  -0.69735455  -0.69106973  -0.65641386  -0.64343069  -0.60515612
  -0.59070104  -0.57451843  -0.56981464  -0.54497098  -0.52204867
  -0.50079175  -0.49896441  -0.47605597  -0.46726373  -0.46334379
  -0.44967226  -0.43797715  -0.43143723  -0.40984154  -0.40037768
  -0.38161579  -0.37654943  -0.36482654  -0.35900369  -0.35354967
  -0.34889196  -0.34434966  -0.33055123  -0.31528345  -0.30584372
  -0.30050959  -0.29312811  -0.28941212  -0.28206229  -0.26239174
  -0.24817828  -0.22625357  -0.22076299  -0.20384079  -0.18612597
  -0.17349514  -0.16435602  -0.11278685  -0.03466759   0.0337766
   0.04781643   0.0787698    0.10177386   0.15628586   0.16040532
   0.17119705   0.18256984   0.21783378   0.22793604   0.23803143
   0.27689633   0.29556505   0.30877188   0.31463466   0.32418763
   0.35613567   0.36210696   0.37062251   0.39947062   0.40290222
   0.41357366   0.41804306   0.4505691    0.4605904    0.47191524
   0.48698841   0.49068404   0.5141067    0.52545011   0.52910283
   0.57654775   0.5960538    0.60398837   0.62828169   0.63276963
   0.65479907   0.68978013   0.70068037   0.7398434    0.77319301
   0.78088195   0.7972924    0.81250958   0.82314062   0.86567945
   0.87825863   0.90308698   0.96077333   0.99004978]
nelec by numeric integration = 146.00000149113546
    CPU time for vxc     39.27 sec, wall time     16.23 sec
E1 = -4102.5350637323645  Ecoul = 1896.1959806453326  Exc = -124.69508361263715
cycle= 4 E= -835.65477926627  delta_E= -0.0189  |g|= 0.086  |ddm|= 0.55
    CPU time for cycle= 4     39.81 sec, wall time     16.32 sec
  HOMO = -0.111276699186379  LUMO = -0.0311644278978276
  mo_energy =
[-10.0434169  -10.03821432 -10.03140401 -10.02988549 -10.02888178
 -10.02573679 -10.02454087 -10.02416659 -10.02388952 -10.02145808
 -10.01529635 -10.01416922 -10.01364734 -10.01316979 -10.01304371
 -10.01286452 -10.01152419 -10.00715677 -10.00702863 -10.0067108
 -10.00215707  -9.99532845  -0.85981212  -0.83814108  -0.80518492
  -0.7881734   -0.77466832  -0.76361233  -0.74284661  -0.70968991
  -0.69790879  -0.69224123  -0.65758582  -0.64233164  -0.6046189
  -0.59030875  -0.57363971  -0.56987289  -0.54739437  -0.51826513
  -0.50085684  -0.49948588  -0.47586292  -0.46744468  -0.46338175
  -0.45009298  -0.43833169  -0.42854698  -0.41073773  -0.39685173
  -0.38041383  -0.37652132  -0.36624599  -0.359026    -0.35447479
  -0.34679424  -0.34416036  -0.32978263  -0.31597141  -0.30735579
  -0.2993789   -0.29474697  -0.28641046  -0.28023067  -0.26262597
  -0.24802508  -0.22771076  -0.22500258  -0.19848083  -0.18822323
  -0.17535234  -0.16537695  -0.1112767   -0.03116443   0.03335949
   0.04649036   0.07599645   0.0981713    0.15461013   0.16665749
   0.17333247   0.18714639   0.21763      0.23016039   0.241966
   0.2786277    0.29651626   0.31220369   0.31574616   0.32635899
   0.35110912   0.35736013   0.37552194   0.39511284   0.39805707
   0.41685729   0.42219987   0.4492613    0.458103     0.4738955
   0.48324976   0.48819677   0.51653656   0.5252411    0.53050616
   0.57744788   0.58832141   0.60219894   0.62625717   0.63108775
   0.66091938   0.68971664   0.70305508   0.73459584   0.77248166
   0.78141598   0.79630889   0.8101591    0.82425845   0.86582885
   0.88010315   0.90597883   0.96388152   0.99822759]
nelec by numeric integration = 146.0000014906359
    CPU time for vxc     38.45 sec, wall time     16.08 sec
E1 = -4102.140224830558  Ecoul = 1895.8002638264643  Exc = -124.69675505711146
cycle= 5 E= -835.657328627806  delta_E= -0.00255  |g|= 0.0347  |ddm|= 0.189
    CPU time for cycle= 5     39.04 sec, wall time     16.17 sec
  HOMO = -0.112153450105262  LUMO = -0.0316733584007965
  mo_energy =
[-10.0451856  -10.04192318 -10.03313756 -10.03276113 -10.03090093
 -10.02553237 -10.02319251 -10.02284281 -10.02009326 -10.0199675
 -10.01891748 -10.01371633 -10.01280674 -10.01026036 -10.01018643
 -10.00956417 -10.00827275 -10.00765659 -10.00532247 -10.00406278
 -10.00141594  -9.99979049  -0.8603301   -0.83833213  -0.80515569
  -0.7876267   -0.77531781  -0.76393831  -0.74165424  -0.70942812
  -0.69773738  -0.69183307  -0.65720756  -0.64238382  -0.60498018
  -0.59002714  -0.57406631  -0.56954431  -0.54665965  -0.51860819
  -0.50073513  -0.49926816  -0.47548415  -0.46723017  -0.46320015
  -0.4498123   -0.43796813  -0.42933247  -0.41083053  -0.39718598
  -0.38051379  -0.37652031  -0.36574875  -0.35848959  -0.353921
  -0.34689177  -0.34432334  -0.32972731  -0.31590324  -0.3072268
  -0.29991921  -0.29462439  -0.28654818  -0.28046822  -0.26269628
  -0.24837495  -0.22772531  -0.22365887  -0.19996649  -0.18821068
  -0.17499297  -0.16522984  -0.11215345  -0.03167336   0.03355144
   0.04679505   0.07618076   0.09949409   0.15498964   0.16575698
   0.17327987   0.18670744   0.21740532   0.22929661   0.24125726
   0.27815092   0.29607968   0.31133701   0.31553489   0.32612498
   0.35334363   0.35784768   0.37474284   0.39623543   0.3991131
   0.4162157    0.42025929   0.44894764   0.45905308   0.47337711
   0.48508336   0.48831298   0.51631857   0.5256223    0.53003618
   0.57767946   0.59187699   0.60259669   0.62676298   0.63091306
   0.66018184   0.68968255   0.70243862   0.73641761   0.77245578
   0.78132355   0.79694033   0.81017514   0.82377595   0.86604662
   0.88012806   0.90646669   0.96317289   0.99794051]
nelec by numeric integration = 146.00000149136605
    CPU time for vxc     39.42 sec, wall time     16.41 sec
E1 = -4102.266491070644  Ecoul = 1895.9241215153663  Exc = -124.69475574439718
cycle= 6 E= -835.657737866276  delta_E= -0.000409  |g|= 0.0121  |ddm|= 0.0646
    CPU time for cycle= 6     39.85 sec, wall time     16.48 sec
  HOMO = -0.111699757640867  LUMO = -0.0308870524462609
  mo_energy =
[-10.04391678 -10.03991719 -10.03317409 -10.03234931 -10.0305233
 -10.02411153 -10.02289091 -10.02275581 -10.02080196 -10.02053109
 -10.01665171 -10.01333901 -10.01281583 -10.01165905 -10.00979036
 -10.00902941 -10.00790218 -10.00689378 -10.00466398 -10.00264634
 -10.00037213  -9.99722774  -0.85958741  -0.83831605  -0.80455723
  -0.78715168  -0.77518221  -0.76359302  -0.74115888  -0.70903332
  -0.69724729  -0.69145153  -0.65671851  -0.64179561  -0.60450885
  -0.58968096  -0.57371061  -0.56929124  -0.54626279  -0.51847466
  -0.50034523  -0.49903559  -0.47522941  -0.46672908  -0.46302205
  -0.44938823  -0.43775557  -0.42910004  -0.41019647  -0.39700562
  -0.38014024  -0.37603324  -0.36528171  -0.35829053  -0.3538317
  -0.34675638  -0.34407038  -0.32950226  -0.31551192  -0.30666535
  -0.29948392  -0.29402829  -0.28642329  -0.28006179  -0.26223057
  -0.24778417  -0.22725623  -0.22334166  -0.19976856  -0.18752305
  -0.17455754  -0.16487131  -0.11169976  -0.03088705   0.03406036
   0.04719515   0.07700281   0.09978795   0.15551347   0.16569841
   0.17375952   0.18670262   0.21803315   0.22982189   0.24133275
   0.27853347   0.29669117   0.31160015   0.31600772   0.32629974
   0.35342077   0.35883771   0.37510958   0.39688547   0.39970084
   0.41642931   0.42085099   0.44958298   0.45940557   0.47374915
   0.48542113   0.48855681   0.51674638   0.52589918   0.53036333
   0.57775904   0.59186606   0.60306253   0.62744002   0.63151754
   0.66048707   0.68999848   0.70278775   0.73689921   0.77315873
   0.78159186   0.79720484   0.81113328   0.82432976   0.86631163
   0.88044815   0.90651552   0.96364208   0.99777577]
nelec by numeric integration = 146.00000149201918
    CPU time for vxc     38.92 sec, wall time     16.25 sec
E1 = -4102.2232629938735  Ecoul = 1895.8800414741186  Exc = -124.69395128341317
cycle= 7 E= -835.657785369769  delta_E= -4.75e-05  |g|= 0.00337  |ddm|= 0.0201
    CPU time for cycle= 7     39.38 sec, wall time     16.33 sec
  HOMO = -0.111692329012591  LUMO = -0.0308276722579894
  mo_energy =
[-10.04379318 -10.03987803 -10.03236797 -10.03216992 -10.0299043
 -10.02427371 -10.02282752 -10.02278299 -10.02099978 -10.02048421
 -10.01656797 -10.01287054 -10.01279248 -10.01160925 -10.00937678
 -10.00853081 -10.00816322 -10.0071905  -10.00442837 -10.00310307
 -10.00019161  -9.99762136  -0.85959238  -0.83809443  -0.80447982
  -0.78711817  -0.77506443  -0.76352776  -0.74115701  -0.70891989
  -0.6971671   -0.69137453  -0.6567038   -0.64178434  -0.60443994
  -0.58962361  -0.5736102   -0.56922081  -0.54629458  -0.51838015
  -0.50030523  -0.49895068  -0.47519838  -0.46671043  -0.46297309
  -0.44937293  -0.43767032  -0.42891808  -0.4101678   -0.39692081
  -0.3801347   -0.37602921  -0.36523453  -0.35818765  -0.3537329
  -0.3466356   -0.34395206  -0.32944784  -0.31546708  -0.30661371
  -0.29937606  -0.29397973  -0.28630097  -0.28001313  -0.26221376
  -0.24773162  -0.22725616  -0.22329975  -0.19959623  -0.18746927
  -0.17443649  -0.16477754  -0.11169233  -0.03082767   0.03413868
   0.04733848   0.07704588   0.09985994   0.15552464   0.16589455
   0.17378177   0.18688664   0.21807774   0.22988926   0.24148153
   0.27866418   0.29672242   0.31176466   0.31605716   0.32645091
   0.35343592   0.35885727   0.37517932   0.39680234   0.39961372
   0.41669903   0.42098397   0.44956673   0.45944044   0.47383323
   0.48548824   0.48875932   0.51678917   0.52598467   0.53042798
   0.5778596    0.5918516    0.60310993   0.62739715   0.63147228
   0.66056565   0.69012521   0.70289853   0.73683322   0.7731262
   0.78176192   0.79729053   0.81101382   0.82439882   0.86648005
   0.88050509   0.90658751   0.96372698   0.99794495]
nelec by numeric integration = 146.00000149170233
    CPU time for vxc     39.22 sec, wall time     16.32 sec
E1 = -4102.21365646485  Ecoul = 1895.8704068563097  Exc = -124.69392698263825
cycle= 8 E= -835.65778915778  delta_E= -3.79e-06  |g|= 0.000965  |ddm|= 0.00524
    CPU time for cycle= 8     39.65 sec, wall time     16.38 sec
  HOMO = -0.111731108045441  LUMO = -0.0308234584332857
  mo_energy =
[-10.04381523 -10.04001141 -10.0323246  -10.03226408 -10.0300068
 -10.02434765 -10.02287761 -10.02270637 -10.02102472 -10.02033353
 -10.01650789 -10.01293368 -10.01267136 -10.01169746 -10.00954117
 -10.00862566 -10.00822294 -10.00726621 -10.00456747 -10.0030503
 -10.00032583  -9.99771265  -0.85964292  -0.83810924  -0.80450413
  -0.78713845  -0.77505151  -0.76356629  -0.74122889  -0.70895966
  -0.69716113  -0.69141785  -0.65675766  -0.64180281  -0.60447687
  -0.58965185  -0.57363315  -0.56923035  -0.5463519   -0.51836644
  -0.50030186  -0.49899157  -0.47521878  -0.46673236  -0.46299425
  -0.44942303  -0.43769788  -0.42892273  -0.41020411  -0.39690504
  -0.38015376  -0.37607119  -0.36526723  -0.35822312  -0.35377312
  -0.34663973  -0.34397415  -0.32943342  -0.31549007  -0.30664213
  -0.29936847  -0.29400227  -0.28632159  -0.2799893   -0.26226971
  -0.24777374  -0.22729542  -0.22336862  -0.19958942  -0.18748954
  -0.17446662  -0.16482846  -0.11173111  -0.03082346   0.03409554
   0.04729916   0.07704115   0.09979838   0.15546063   0.16590971
   0.17379091   0.18687577   0.21805136   0.22985844   0.24148869
   0.27862882   0.29667627   0.31173742   0.31602117   0.32644882
   0.35337488   0.35883838   0.3752032    0.39678202   0.39958791
   0.41668098   0.42103887   0.44952107   0.45937151   0.47383491
   0.48541967   0.48870113   0.51679622   0.52596224   0.53042341
   0.57788484   0.59176569   0.6031255    0.62732793   0.63140224
   0.66059608   0.69007876   0.70287772   0.73675067   0.77306677
   0.78172681   0.79732313   0.81094695   0.82433631   0.86647933
   0.88045686   0.90655416   0.96368999   0.99796269]
nelec by numeric integration = 146.0000014921238
    CPU time for vxc     38.39 sec, wall time     15.90 sec
E1 = -4102.217859139146  Ecoul = 1895.874711184765  Exc = -124.69402901649025
cycle= 9 E= -835.657789537472  delta_E= -3.8e-07  |g|= 0.000357  |ddm|= 0.00201
    CPU time for cycle= 9     38.75 sec, wall time     15.96 sec
  HOMO = -0.111731331454399  LUMO = -0.0308175151944335
  mo_energy =
[-10.04381541 -10.03996826 -10.03232663 -10.03226305 -10.03002142
 -10.02433775 -10.02285537 -10.0227887  -10.02100126 -10.02039093
 -10.01648154 -10.01298582 -10.01276805 -10.01163199 -10.00953352
 -10.00859427 -10.00823574 -10.00724602 -10.00454364 -10.00307899
 -10.00026747  -9.99772057  -0.85963306  -0.83811227  -0.80451603
  -0.78714702  -0.77505396  -0.76356071  -0.74122423  -0.70895112
  -0.69718279  -0.69141107  -0.65675318  -0.64180042  -0.60447522
  -0.58964637  -0.57363568  -0.56923855  -0.54634545  -0.51837295
  -0.50031791  -0.49899376  -0.47522003  -0.46673323  -0.4630003
  -0.4494179   -0.43770023  -0.42892282  -0.41020555  -0.396911
  -0.38014559  -0.37606276  -0.36526689  -0.35822258  -0.35376988
  -0.34664394  -0.34397618  -0.32943072  -0.3154855   -0.30664909
  -0.29937854  -0.29399859  -0.28631864  -0.28000127  -0.26226414
  -0.24776736  -0.22728729  -0.22336451  -0.19958214  -0.1874925
  -0.17447453  -0.1648238   -0.11173133  -0.03081752   0.03409993
   0.04729919   0.07703217   0.09980298   0.15546773   0.16591871
   0.17378247   0.18687725   0.21804887   0.22986328   0.24149754
   0.27863024   0.29668475   0.31174355   0.31602424   0.32643568
   0.35338507   0.35883722   0.37520663   0.39677756   0.39958371
   0.41667616   0.42104414   0.44952353   0.45937886   0.47383011
   0.48542817   0.48870878   0.51678742   0.52595122   0.53042273
   0.57785662   0.59177602   0.60310217   0.62733128   0.63140522
   0.66059144   0.69008566   0.70287791   0.73675866   0.77307303
   0.78172353   0.79728255   0.81095139   0.82434346   0.86645654
   0.88046655   0.90656471   0.96369459   0.99796258]
nelec by numeric integration = 146.00000149213352
    CPU time for vxc     38.09 sec, wall time     15.90 sec
E1 = -4102.217320847671  Ecoul = 1895.8741828194663  Exc = -124.69403898525135
cycle= 10 E= -835.657789580057  delta_E= -4.26e-08  |g|= 0.000128  |ddm|= 0.000652
    CPU time for cycle= 10     38.52 sec, wall time     15.97 sec
  HOMO = -0.111733741643261  LUMO = -0.0308201874287242
  mo_energy =
[-10.04383438 -10.03996733 -10.03233878 -10.032273   -10.02999067
 -10.02433531 -10.02285707 -10.02277511 -10.02100676 -10.02038711
 -10.01648494 -10.01299549 -10.01275492 -10.01165149 -10.00951411
 -10.0086069  -10.00823051 -10.00724247 -10.00452608 -10.00307731
 -10.00032161  -9.997725    -0.85963815  -0.83811489  -0.80451353
  -0.78714541  -0.77505956  -0.76356625  -0.74122107  -0.70895784
  -0.69717624  -0.69141707  -0.65675394  -0.64179956  -0.60447924
  -0.58964853  -0.57364049  -0.56923981  -0.5463437   -0.51837438
  -0.50031716  -0.49899544  -0.47522027  -0.46673154  -0.46300035
  -0.44941818  -0.43770106  -0.42892683  -0.41020613  -0.39691394
  -0.38014976  -0.37606528  -0.36526617  -0.358223    -0.35376852
  -0.34664415  -0.34397575  -0.32943583  -0.31549198  -0.30664698
  -0.29937962  -0.29400753  -0.28632372  -0.28000129  -0.2622662
  -0.24776933  -0.22728835  -0.22336292  -0.19959087  -0.18749571
  -0.17447269  -0.16482914  -0.11173374  -0.03082019   0.03409712
   0.04729765   0.07702989   0.09980297   0.15546845   0.16590908
   0.17378188   0.18687178   0.21804825   0.22985878   0.24148731
   0.27862771   0.29668135   0.31173703   0.31602397   0.32643997
   0.35338997   0.3588249    0.37520106   0.39678163   0.39958888
   0.41667216   0.42103598   0.44952416   0.45938038   0.47382804
   0.48542723   0.48869978   0.51678745   0.52595194   0.53042153
   0.5778632    0.59178619   0.60310431   0.62733361   0.63140598
   0.66058987   0.69007485   0.70287026   0.73676456   0.77307142
   0.78171975   0.797291     0.81095296   0.82433963   0.86645913
   0.88045744   0.90655913   0.96368942   0.99795753]
nelec by numeric integration = 146.00000149214085
    CPU time for vxc     39.58 sec, wall time     16.73 sec
E1 = -4102.217399929081  Ecoul = 1895.874261166031  Exc = -124.69403825538868
cycle= 11 E= -835.65778958504  delta_E= -4.98e-09  |g|= 8.04e-05  |ddm|= 0.000312
    CPU time for cycle= 11     40.07 sec, wall time     16.81 sec
  HOMO = -0.111732785843925  LUMO = -0.0308178486763519
  mo_energy =
[-10.04382473 -10.03997557 -10.03233057 -10.0322669  -10.03000545
 -10.0243392  -10.02286268 -10.02277404 -10.02100335 -10.0203795
 -10.01647889 -10.01298506 -10.01274926 -10.01165249 -10.00952031
 -10.00860731 -10.00822962 -10.00724441 -10.00453054 -10.00307516
 -10.00029279  -9.99772772  -0.85963781  -0.83811327  -0.80451333
  -0.78714511  -0.77505663  -0.76356515  -0.74122264  -0.70895422
  -0.69717623  -0.69141384  -0.65675366  -0.64179924  -0.60447748
  -0.58964733  -0.57363783  -0.56923758  -0.54634562  -0.51837293
  -0.5003146   -0.49899439  -0.4752196   -0.46673134  -0.46299973
  -0.44941848  -0.43769932  -0.42892552  -0.41020491  -0.39691151
  -0.38014962  -0.37606565  -0.36526563  -0.35822241  -0.35376919
  -0.34664421  -0.34397611  -0.32943473  -0.31548996  -0.30664683
  -0.29937749  -0.29400181  -0.28632194  -0.27999892  -0.26226682
  -0.2477691   -0.22728959  -0.22336366  -0.19958903  -0.18749222
  -0.17447241  -0.16482648  -0.11173279  -0.03081785   0.034099
   0.04729909   0.07703371   0.09980311   0.15546674   0.16591111
   0.17378379   0.1868736    0.21804913   0.22985875   0.24148948
   0.27862801   0.29668126   0.31173824   0.31602326   0.32643947
   0.35338747   0.35883333   0.37520346   0.39678097   0.39958759
   0.4166755    0.42103951   0.4495234    0.45937867   0.47382941
   0.48542846   0.48870504   0.51678944   0.52595261   0.53042221
   0.57786375   0.59178322   0.60310771   0.62733143   0.63140426
   0.66059228   0.69007979   0.70287433   0.73676172   0.77307129
   0.7817228    0.79729216   0.81095135   0.82433971   0.86646118
   0.88045979   0.90656002   0.96369068   0.99796026]
nelec by numeric integration = 146.0000014921518
    CPU time for vxc     39.33 sec, wall time     16.25 sec
E1 = -4102.217424479132  Ecoul = 1895.874284336848  Exc = -124.69403687852538
cycle= 12 E= -835.657789587411  delta_E= -2.37e-09  |g|= 1.43e-05  |ddm|= 0.000132
    CPU time for cycle= 12     39.93 sec, wall time     16.34 sec
  HOMO = -0.11173191414226  LUMO = -0.0308165497891487
  mo_energy =
[-10.04382126 -10.03997393 -10.03232705 -10.03226296 -10.03000428
 -10.02433891 -10.02285975 -10.0227701  -10.02100127 -10.0203766
 -10.01647718 -10.01298556 -10.01274998 -10.01164691 -10.00952094
 -10.00860091 -10.00823178 -10.00724492 -10.00453276 -10.00307371
 -10.00029482  -9.99772679  -0.8596361   -0.83811075  -0.80451235
  -0.78714399  -0.77505438  -0.76356352  -0.74122266  -0.70895341
  -0.69717522  -0.69141328  -0.65675339  -0.64179844  -0.60447656
  -0.58964634  -0.57363685  -0.56923673  -0.54634551  -0.51837138
  -0.50031417  -0.49899369  -0.47521887  -0.46673083  -0.4629991
  -0.44941785  -0.43769889  -0.42892362  -0.41020448  -0.39690999
  -0.38014824  -0.37606458  -0.3652649   -0.35822126  -0.35376856
  -0.34664264  -0.34397486  -0.32943338  -0.31548903  -0.30664615
  -0.29937615  -0.29400126  -0.28631984  -0.27999737  -0.26226577
  -0.24776833  -0.22728895  -0.22336351  -0.19958654  -0.18749159
  -0.17447132  -0.16482575  -0.11173191  -0.03081655   0.03409973
   0.04730026   0.07703431   0.0998035    0.15546747   0.16591402
   0.17378517   0.18687622   0.21804998   0.22986034   0.24149167
   0.27862973   0.29668256   0.3117404    0.31602425   0.32644092
   0.3533871    0.35883352   0.37520541   0.39678081   0.39958733
   0.41667692   0.4210412    0.44952298   0.45937912   0.47383047
   0.48542832   0.48870577   0.51679028   0.52595354   0.5304237
   0.5778649    0.59178202   0.60310794   0.62733151   0.63140438
   0.66059399   0.69008085   0.70287554   0.73676116   0.77307187
   0.78172388   0.79729307   0.81095127   0.82434116   0.86646261
   0.88046199   0.90656251   0.96369271   0.99796372]
nelec by numeric integration = 146.00000149214975
    CPU time for vxc     38.69 sec, wall time     16.23 sec
E1 = -4102.217258848293  Ecoul = 1895.8741174009972  Exc = -124.69403557356776
cycle= 13 E= -835.657789587464  delta_E= -5.37e-11  |g|= 9.88e-06  |ddm|= 3.87e-05
    CPU time for cycle= 13     39.12 sec, wall time     16.30 sec
  HOMO = -0.111733130612834  LUMO = -0.0308178273573947
  mo_energy =
[-10.04382577 -10.03997529 -10.03233078 -10.03226669 -10.03000306
 -10.02433902 -10.02286199 -10.02277348 -10.02100537 -10.0203798
 -10.0164793  -10.01298618 -10.01274844 -10.01165191 -10.00952121
 -10.00860765 -10.00823117 -10.00724406 -10.0045299  -10.00307504
 -10.00029201  -9.99772836  -0.85963822  -0.83811298  -0.8045133
  -0.78714518  -0.77505652  -0.76356528  -0.74122292  -0.70895421
  -0.69717598  -0.69141388  -0.65675394  -0.64179943  -0.60447757
  -0.58964747  -0.57363783  -0.56923759  -0.54634594  -0.51837285
  -0.50031455  -0.4989946   -0.47521977  -0.46673151  -0.46299994
  -0.44941881  -0.43769936  -0.42892508  -0.41020504  -0.39691132
  -0.3801496   -0.37606588  -0.3652657   -0.35822247  -0.35376924
  -0.34664389  -0.34397595  -0.32943427  -0.31548985  -0.30664684
  -0.29937727  -0.2940018   -0.2863219   -0.27999886  -0.26226705
  -0.24776921  -0.2272896   -0.22336387  -0.19958857  -0.18749199
  -0.17447228  -0.16482656  -0.11173313  -0.03081783   0.03409891
   0.04729911   0.07703407   0.09980292   0.15546655   0.16591177
   0.17378377   0.18687375   0.21804903   0.22985878   0.24149006
   0.27862816   0.29668099   0.31173845   0.31602313   0.32643965
   0.35338726   0.35883362   0.37520356   0.39678073   0.39958733
   0.41667579   0.42104014   0.44952297   0.45937835   0.47382948
   0.48542823   0.4887051    0.51678939   0.52595259   0.53042215
   0.57786383   0.59178276   0.60310798   0.62733106   0.63140381
   0.66059229   0.69007977   0.70287427   0.73676133   0.77307108
   0.78172313   0.79729243   0.81095079   0.82433947   0.86646152
   0.88045918   0.9065599    0.96369047   0.99796049]
nelec by numeric integration = 146.0000014921563
    CPU time for vxc     38.48 sec, wall time     16.10 sec
E1 = -4102.217461933521  Ecoul = 1895.8743230417533  Exc = -124.69403812902613
Extra cycle  E= -835.657789587395  delta_E= 6.91e-11  |g|= 1.72e-05  |ddm|= 4e-05
    CPU time for scf_cycle    597.10 sec, wall time    245.48 sec
    CPU time for SCF    597.10 sec, wall time    245.48 sec
converged SCF energy = -835.657789587395
nelec by numeric integration = 146.0000014921563
    CPU time for vxc     38.35 sec, wall time     15.95 sec
 ** Mulliken pop  **
pop of  0 C 1s            1.99063
pop of  0 C 2s            1.08923
pop of  0 C 2px           1.01913
pop of  0 C 2py           0.98718
pop of  0 C 2pz           0.93749
pop of  1 C 1s            1.99075
pop of  1 C 2s            1.11677
pop of  1 C 2px           0.96097
pop of  1 C 2py           0.96830
pop of  1 C 2pz           0.95480
pop of  2 C 1s            1.99093
pop of  2 C 2s            1.13759
pop of  2 C 2px           0.98052
pop of  2 C 2py           0.95117
pop of  2 C 2pz           0.99713
pop of  3 C 1s            1.99118
pop of  3 C 2s            1.16867
pop of  3 C 2px           0.95630
pop of  3 C 2py           0.96624
pop of  3 C 2pz           1.03126
pop of  4 C 1s            1.99084
pop of  4 C 2s            1.16477
pop of  4 C 2px           1.01070
pop of  4 C 2py           0.93496
pop of  4 C 2pz           0.96736
pop of  5 C 1s            1.99077
pop of  5 C 2s            1.08521
pop of  5 C 2px           1.02342
pop of  5 C 2py           0.98900
pop of  5 C 2pz           0.99319
pop of  6 C 1s            1.99099
pop of  6 C 2s            1.16204
pop of  6 C 2px           0.97154
pop of  6 C 2py           0.99973
pop of  6 C 2pz           0.96459
pop of  7 C 1s            1.99109
pop of  7 C 2s            1.17570
pop of  7 C 2px           1.00603
pop of  7 C 2py           0.97753
pop of  7 C 2pz           0.94460
pop of  8 C 1s            1.99099
pop of  8 C 2s            1.09115
pop of  8 C 2px           0.98342
pop of  8 C 2py           0.93576
pop of  8 C 2pz           0.96377
pop of  9 C 1s            1.99059
pop of  9 C 2s            1.06924
pop of  9 C 2px           1.03272
pop of  9 C 2py           0.94889
pop of  9 C 2pz           0.95928
pop of  10 C 1s           1.99088
pop of  10 C 2s           1.09837
pop of  10 C 2px          1.07128
pop of  10 C 2py          0.93902
pop of  10 C 2pz          1.02715
pop of  11 C 1s           1.99137
pop of  11 C 2s           1.21724
pop of  11 C 2px          0.92557
pop of  11 C 2py          0.92094
pop of  11 C 2pz          0.96452
pop of  12 C 1s           1.99170
pop of  12 C 2s           1.17706
pop of  12 C 2px          0.93069
pop of  12 C 2py          0.96385
pop of  12 C 2pz          0.93188
pop of  13 C 1s           1.99152
pop of  13 C 2s           1.09192
pop of  13 C 2px          1.01387
pop of  13 C 2py          0.98008
pop of  13 C 2pz          0.93353
pop of  14 C 1s           1.99114
pop of  14 C 2s           1.10574
pop of  14 C 2px          1.02454
pop of  14 C 2py          0.99015
pop of  14 C 2pz          0.96975
pop of  15 C 1s           1.99107
pop of  15 C 2s           1.12724
pop of  15 C 2px          0.99380
pop of  15 C 2py          0.98431
pop of  15 C 2pz          1.01606
pop of  16 C 1s           1.99070
pop of  16 C 2s           1.13023
pop of  16 C 2px          0.97334
pop of  16 C 2py          0.95840
pop of  16 C 2pz          0.93222
pop of  17 C 1s           1.99091
pop of  17 C 2s           1.13340
pop of  17 C 2px          1.00144
pop of  17 C 2py          0.91970
pop of  17 C 2pz          0.93346
pop of  18 C 1s           1.99129
pop of  18 C 2s           1.18383
pop of  18 C 2px          1.00857
pop of  18 C 2py          0.93240
pop of  18 C 2pz          1.00148
pop of  19 C 1s           1.99046
pop of  19 C 2s           1.09185
pop of  19 C 2px          1.01763
pop of  19 C 2py          0.97135
pop of  19 C 2pz          1.02658
pop of  20 C 1s           1.99141
pop of  20 C 2s           1.21967
pop of  20 C 2px          0.94879
pop of  20 C 2py          0.94891
pop of  20 C 2pz          0.93843
pop of  21 C 1s           1.99077
pop of  21 C 2s           1.10937
pop of  21 C 2px          1.03275
pop of  21 C 2py          1.03512
pop of  21 C 2pz          0.96799
pop of  22 H 1s           0.94456
pop of  23 H 1s           0.89531
pop of  24 H 1s           0.92921
pop of  25 H 1s           0.93064
pop of  26 H 1s           0.90703
pop of  27 H 1s           0.89775
pop of  28 H 1s           0.87753
pop of  29 H 1s           0.95779
pop of  30 H 1s           0.95970
pop of  31 H 1s           0.90066
pop of  32 H 1s           0.89797
pop of  33 H 1s           0.89886
pop of  34 H 1s           0.92925
pop of  35 H 1s           0.87893
 ** Mulliken atomic charges  **
charge of    0C =     -0.02367
charge of    1C =      0.00841
charge of    2C =     -0.05734
charge of    3C =     -0.11366
charge of    4C =     -0.06862
charge of    5C =     -0.08159
charge of    6C =     -0.08889
charge of    7C =     -0.09496
charge of    8C =      0.03490
charge of    9C =     -0.00072
charge of   10C =     -0.12670
charge of   11C =     -0.01963
charge of   12C =      0.00482
charge of   13C =     -0.01092
charge of   14C =     -0.08133
charge of   15C =     -0.11248
charge of   16C =      0.01512
charge of   17C =      0.02108
charge of   18C =     -0.11757
charge of   19C =     -0.09786
charge of   20C =     -0.04721
charge of   21C =     -0.13599
charge of   22H =      0.05544
charge of   23H =      0.10469
charge of   24H =      0.07079
charge of   25H =      0.06936
charge of   26H =      0.09297
charge of   27H =      0.10225
charge of   28H =      0.12247
charge of   29H =      0.04221
charge of   30H =      0.04030
charge of   31H =      0.09934
charge of   32H =      0.10203
charge of   33H =      0.10114
charge of   34H =      0.07075
charge of   35H =      0.12107
Dipole moment(X, Y, Z, Debye): -0.00334, -0.04003, -0.21408
nelec by numeric integration = 146.0000014921563
    CPU time for vxc     37.90 sec, wall time     15.75 sec
E1 = -4102.217461933521  Ecoul = 1895.874323041753  Exc = -124.69403812902611
nelec by numeric integration = 146.0000014921563
    CPU time for vxc     37.90 sec, wall time     15.80 sec
E1 = -4102.217461933521  Ecoul = 1895.8743230417533  Exc = -124.69403812902611
