System: uname_result(system='Linux', node='cosmopc18', release='5.15.0-97-generic', version='#107-Ubuntu SMP Wed Feb 7 13:26:48 UTC 2024', machine='x86_64')  Threads 4
Python 3.11.8 (main, Feb 26 2024, 21:39:34) [GCC 11.2.0]
numpy 1.26.4  scipy 1.11.4
Date: Tue Apr  9 13:55:04 2024
PySCF version 2.3.0
PySCF path  /home/saade/miniconda3/envs/tutorial/lib/python3.11/site-packages/pyscf

[ENV] PYSCFAD_BACKEND torch
[CONFIG] conf_file None
[INPUT] verbose = 5
[INPUT] max_memory = 4000 
[INPUT] num. atoms = 36
[INPUT] num. electrons = 146
[INPUT] charge = 0
[INPUT] spin (= nelec alpha-beta = 2S) = 0
[INPUT] symmetry False subgroup None
[INPUT] Mole.unit = angstrom
[INPUT] Symbol           X                Y                Z      unit          X                Y                Z       unit  Magmom
[INPUT]  1 C     -0.073347000000   3.530142000000   0.733411000000 AA   -0.138605742058   6.671001560824   1.385945926743 Bohr   0.0
[INPUT]  2 C     -0.075492000000   3.528488000000  -0.800846000000 AA   -0.142659204596   6.667875953814  -1.513379607953 Bohr   0.0
[INPUT]  3 C     -0.252182000000   5.035967000000   1.471305000000 AA   -0.476554913545   9.516598402348   2.780363495703 Bohr   0.0
[INPUT]  4 C     -0.085620000000   2.497037000000   1.319700000000 AA   -0.161798350785   4.718716052906   2.493871566589 Bohr   0.0
[INPUT]  5 C     -0.009993000000   4.918873000000  -1.395233000000 AA   -0.018884033163   9.295322811518  -2.636608249955 Bohr   0.0
[INPUT]  6 C     -0.014201000000   2.433694000000  -1.195192000000 AA   -0.026836000695   4.599015130997  -2.258585546271 Bohr   0.0
[INPUT]  7 C      0.133063000000   6.025896000000  -0.775998000000 AA    0.251452627313  11.387293095112  -1.466423693210 Bohr   0.0
[INPUT]  8 C      0.082634000000   6.167038000000   0.918719000000 AA    0.156155628577  11.654012819785   1.736127295434 Bohr   0.0
[INPUT]  9 C     -0.029235000000   1.353138000000   0.750238000000 AA   -0.055246143252   2.557060228742   1.417744348241 Bohr   0.0
[INPUT] 10 C      0.074885000000   1.224013000000  -0.828789000000 AA    0.141512140838   2.313049342907  -1.566184225052 Bohr   0.0
[INPUT] 11 C      0.011686000000   0.195720000000   1.394743000000 AA    0.022083339492   0.369857197100   2.635682284154 Bohr   0.0
[INPUT] 12 C      0.084555000000   0.090131000000  -1.341671000000 AA    0.159785792463   0.170322905333  -2.535390739271 Bohr   0.0
[INPUT] 13 C     -0.076997000000  -1.195339000000   0.641272000000 AA   -0.145503242413  -2.258863336011   1.211828451352 Bohr   0.0
[INPUT] 14 C      0.091391000000  -1.085658000000  -0.805958000000 AA    0.172703960250  -2.051596284943  -1.523039887902 Bohr   0.0
[INPUT] 15 C      0.062448000000  -2.452085000000   1.208557000000 AA    0.118009617027  -4.633769084154   2.283841735926 Bohr   0.0
[INPUT] 16 C      0.005650000000  -2.246165000000  -1.471178000000 AA    0.010676952604  -4.244636680584  -2.780123500485 Bohr   0.0
[INPUT] 17 C     -0.040575000000  -3.662867000000   0.649383000000 AA   -0.076675637504  -6.921815460707   1.227156019948 Bohr   0.0
[INPUT] 18 C      0.037240000000  -3.704192000000  -0.674054000000 AA    0.070373400879  -6.999908392805  -1.273777453168 Bohr   0.0
[INPUT] 19 C      0.059223000000  -4.853992000000   1.455675000000 AA    0.111915250275  -9.172715490830   2.750827076376 Bohr   0.0
[INPUT] 20 C      0.075397000000  -4.781084000000  -1.458356000000 AA    0.142479680614  -9.034939338540  -2.755893432116 Bohr   0.0
[INPUT] 21 C     -0.012228000000  -6.025840000000   0.791081000000 AA   -0.023107571051 -11.387187270449   1.494926432347 Bohr   0.0
[INPUT] 22 C     -0.178361000000  -6.014409000000  -0.631968000000 AA   -0.337053441304 -11.365585811119  -1.194246439489 Bohr   0.0
[INPUT] 23 H      0.138493000000   4.922665000000   2.487123000000 AA    0.261713840169   9.302488652982   4.699981308107 Bohr   0.0
[INPUT] 24 H     -0.096981000000   2.505565000000   2.342737000000 AA   -0.183267529286   4.734831637296   4.427131311885 Bohr   0.0
[INPUT] 25 H      0.059273000000   4.685238000000  -2.277635000000 AA    0.112009736581   8.853816648405  -4.304106361724 Bohr   0.0
[INPUT] 26 H      0.075809000000   2.595002000000  -2.635828000000 AA    0.143258247777   4.903843072699  -4.980993031460 Bohr   0.0
[INPUT] 27 H      0.085311000000   6.947404000000  -1.263049000000 AA    0.161214425413  13.128690836708  -2.386816691906 Bohr   0.0
[INPUT] 28 H     -0.004103000000   7.046866000000   1.150540000000 AA   -0.007753546289  13.316646776509   2.174205495357 Bohr   0.0
[INPUT] 29 H      0.056963000000   0.099826000000   2.482155000000 AA    0.107644469234   0.188643800111   4.690593148720 Bohr   0.0
[INPUT] 30 H     -0.013540000000   0.034420000000  -2.473608000000 AA   -0.025586891727   0.065044373208  -4.674441659533 Bohr   0.0
[INPUT] 31 H     -0.137227000000  -2.327042000000   2.381393000000 AA   -0.259321446896  -4.397472060360   4.500180564956 Bohr   0.0
[INPUT] 32 H      0.066564000000  -2.495245000000  -2.398161000000 AA    0.125787729756  -4.715329663690  -4.531867492613 Bohr   0.0
[INPUT] 33 H      0.034753000000  -4.933406000000   2.590344000000 AA    0.065673652007  -9.322786201286   4.895040728410 Bohr   0.0
[INPUT] 34 H     -0.007607000000  -4.637651000000  -2.553213000000 AA   -0.014375146630  -8.763890251315  -4.824873307679 Bohr   0.0
[INPUT] 35 H      0.077320000000  -7.174286000000   1.132460000000 AA    0.146113623951 -13.557435679301   2.140039247025 Bohr   0.0
[INPUT] 36 H     -0.056353000000  -7.098770000000  -1.286370000000 AA   -0.106491736298 -13.414731121279  -2.430886994857 Bohr   0.0
[INPUT] ---------------- BASIS SET ---------------- 
[INPUT] l, kappa, [nprim/nctr], expnt,             c_1 c_2 ...
[INPUT] H
[INPUT] 0    0    [3    /1   ]  3.42525091        0.15432897
                                0.62391373        0.53532814
                                0.1688554         0.44463454
[INPUT] C
[INPUT] 0    0    [3    /1   ]  71.616837         0.15432897
                                13.045096         0.53532814
                                3.5305122         0.44463454
[INPUT] 0    0    [3    /1   ]  2.9412494         -0.09996723
                                0.6834831         0.39951283
                                0.2222899         0.70011547
[INPUT] 1    0    [3    /1   ]  2.9412494         0.15591627
                                0.6834831         0.60768372
                                0.2222899         0.39195739

nuclear repulsion = 1510.66123994949
number of shells = 80
number of NR pGTOs = 372
number of NR cGTOs = 124
basis = sto3g
ecp = {}
CPU time:     37099.57
atom C rad-grids = 99, ang-grids = [ 50  50  50  50  50  50  50  50  50  50  50  50  50  50  50  50  50  50
  50  50  50  50  50  50  50  50  50  50  50  50  50  86  86  86  86  86
  86  86  86  86  86  86  86 434 434 434 434 434 434 434 434 434 590 590
 590 590 590 590 590 590 590 590 590 590 590 590 590 590 590 590 590 590
 590 590 590 590 590 590 590 434 434 434 434 434 434 434 434 434 434 434
 434 434 434 434 434 434 434 434 434]
atom H rad-grids = 99, ang-grids = [ 50  50  50  50  50  50  50  50  50  50  50  50  50  50  50  50  50  50
  50  50  50  50  50  50  50  50  50  50  86  86  86  86  86  86  86 434
 434 434 434 434 434 434 434 590 590 590 590 590 590 590 590 590 590 590
 590 590 590 590 590 590 590 590 590 590 590 590 590 590 590 434 434 434
 434 434 434 434 434 434 434 434 434 434 434 434 434 434 434 434 434 434
 434 434 434 434 434 434 434 434 434]
tot_boxes 5270, boxes in each direction [ 8 29 15]
Padding 0 grids
tot grids = 1157832


******** <class 'pyscf.dft.rks.RKS'> ********
method = RKS
initial guess = minao
damping factor = 0
level_shift factor = 0
DIIS = <class 'pyscf.scf.diis.CDIIS'>
diis_start_cycle = 1
diis_space = 8
SCF conv_tol = 1e-10
SCF conv_tol_grad = None
SCF max_cycles = 50
direct_scf = True
direct_scf_tol = 1e-13
chkfile to save SCF result = /home/saade/mlelec/tutorials/tmpi7bvmbtp
max_memory 4000 MB (current use 637 MB)
XC library pyscf.dft.libxc version 6.1.0
    S. Lehtola, C. Steigemann, M. J.T. Oliveira, and M. A.L. Marques.,  SoftwareX 7, 1–5 (2018)
XC functionals = b3lypg
    P. J. Stephens, F. J. Devlin, C. F. Chabalowski, and M. J. Frisch.,  J. Phys. Chem. 98, 11623 (1994)
radial grids: 
    Treutler-Ahlrichs [JCP 102, 346 (1995); DOI:10.1063/1.469408] (M4) radial grids
    
becke partition: Becke, JCP 88, 2547 (1988); DOI:10.1063/1.454033
pruning grids: <function nwchem_prune at 0x7f9db5616ca0>
grids dens level: 3
symmetrized grids: False
atomic radii adjust function: <function treutler_atomic_radii_adjust at 0x7f9db5617380>
User specified grid scheme (99, 590)
small_rho_cutoff = 1e-07
Set gradient conv threshold to 1e-05
Initial guess from minao.
nelec by numeric integration = 145.26980537312832
    CPU time for vxc     37.07 sec, wall time     15.55 sec
E1 = -4120.809053023454  Ecoul = 1894.4231224882326  Exc = -126.30351486819211
init E= -842.028205453924
cond(S) = 24.898065469610746
    CPU time for initialize scf     47.08 sec, wall time     17.95 sec
  HOMO = -0.222636689291903  LUMO = -0.144236206367969
  mo_energy =
[-10.1629781  -10.15119766 -10.14090932 -10.13939272 -10.12917336
 -10.12860187 -10.12368018 -10.11958138 -10.11817204 -10.11347195
 -10.10499797 -10.10433456 -10.10219738 -10.09851334 -10.09804716
 -10.09266495 -10.08994642 -10.08895594 -10.08814916 -10.08575173
 -10.08175323 -10.06360727  -1.13985698  -1.08310762  -1.04121466
  -1.00307814  -0.97672321  -0.9391371   -0.92501589  -0.90231841
  -0.88700909  -0.85845328  -0.81487093  -0.7774767   -0.72360876
  -0.71378985  -0.69343759  -0.67876474  -0.67077021  -0.65584737
  -0.61998025  -0.60090282  -0.58882719  -0.56257236  -0.54583269
  -0.53082569  -0.51154763  -0.50259214  -0.49922237  -0.49809779
  -0.49125119  -0.48512624  -0.46106322  -0.45762643  -0.45680185
  -0.43544943  -0.42389049  -0.42063392  -0.41569701  -0.40823642
  -0.39766763  -0.37582334  -0.37199822  -0.35590491  -0.34384487
  -0.3317963   -0.32659719  -0.3156184   -0.30312928  -0.29446138
  -0.27627265  -0.26478942  -0.22263669  -0.14423621  -0.08991506
  -0.07320559  -0.04496515  -0.01625092  -0.01067737   0.02511167
   0.02649035   0.06909749   0.08622191   0.09049863   0.12002184
   0.1305695    0.15400998   0.16370936   0.17654132   0.19146091
   0.21511593   0.23298581   0.24420597   0.24939921   0.25908298
   0.2748029    0.27865288   0.29641181   0.31413219   0.35877883
   0.3718264    0.37438994   0.38866159   0.40364335   0.44027704
   0.44661388   0.45879035   0.49098615   0.50473278   0.5224797
   0.54265302   0.54822656   0.55276675   0.58394087   0.60767227
   0.65123688   0.67514127   0.68757481   0.70276378   0.73674435
   0.75701512   0.79487347   0.8570705    0.9631524 ]
nelec by numeric integration = 145.99999987645342
    CPU time for vxc     38.37 sec, wall time     15.78 sec
E1 = -4136.12876286306  Ecoul = 1914.7044628368758  Exc = -124.90823023983198
cycle= 1 E= -835.671290316526  delta_E= 6.36  |g|= 0.281  |ddm|= 9.34
    CPU time for cycle= 1     38.73 sec, wall time     15.84 sec
  HOMO = -0.0945407906253137  LUMO = 0.0175864087287108
  mo_energy =
[-10.04378325 -10.0325987  -10.02818139 -10.01942122 -10.01647994
 -10.00405165  -9.9914154   -9.99008856  -9.98987528  -9.9872332
  -9.98616563  -9.98333614  -9.98137154  -9.97953883  -9.97406671
  -9.96905222  -9.966536    -9.96063468  -9.94050069  -9.94044808
  -9.93520258  -9.93327193  -0.83641955  -0.8286863   -0.78676528
  -0.76923995  -0.74660612  -0.73627295  -0.71978622  -0.71086016
  -0.69068816  -0.66825655  -0.63471657  -0.61078347  -0.57890053
  -0.57455315  -0.55327657  -0.53803302  -0.52572945  -0.5090665
  -0.49366803  -0.47139359  -0.45827172  -0.44446602  -0.42953884
  -0.41968818  -0.41010501  -0.40570012  -0.39000246  -0.37896743
  -0.36779972  -0.35402864  -0.35121713  -0.34479234  -0.33913025
  -0.3348927   -0.31903918  -0.31198561  -0.30282983  -0.29243451
  -0.28537577  -0.26786304  -0.26240705  -0.24885931  -0.23939633
  -0.23011975  -0.21751523  -0.21267104  -0.19854314  -0.17070625
  -0.15792778  -0.14762936  -0.09454079   0.01758641   0.05476342
   0.08112778   0.10761612   0.12116102   0.15758226   0.17543172
   0.19799072   0.22499557   0.24097447   0.25585844   0.27224659
   0.28185794   0.30347948   0.32287682   0.32807334   0.34456786
   0.35549127   0.36152191   0.39533406   0.4118096    0.42053309
   0.42461249   0.43365998   0.45498479   0.48029002   0.49646689
   0.50106927   0.52387009   0.53763774   0.55092363   0.58511535
   0.60173521   0.62490669   0.6369033    0.65961695   0.68212664
   0.68852738   0.7029263    0.71805488   0.75564967   0.77698035
   0.7908726    0.85736384   0.86089995   0.87657611   0.88823398
   0.94447129   1.00091139   1.06586919   1.17256846]
nelec by numeric integration = 145.99999999307144
    CPU time for vxc     38.26 sec, wall time     15.76 sec
E1 = -4129.372002493094  Ecoul = 1907.8062850428148  Exc = -124.76342891223116
cycle= 2 E= -835.667906413021  delta_E= 0.00338  |g|= 0.312  |ddm|= 0.969
    CPU time for cycle= 2     38.69 sec, wall time     15.83 sec
  HOMO = -0.122814754690291  LUMO = -0.00649771068907784
  mo_energy =
[-1.00389084e+01 -1.00349085e+01 -1.00294740e+01 -1.00290968e+01
 -1.00275837e+01 -1.00246732e+01 -1.00181029e+01 -1.00175996e+01
 -1.00169978e+01 -1.00168942e+01 -1.00155881e+01 -1.00130838e+01
 -1.00122888e+01 -1.00113290e+01 -1.00080622e+01 -1.00064392e+01
 -1.00011063e+01 -9.99799645e+00 -9.99737903e+00 -9.99417527e+00
 -9.98935681e+00 -9.97964911e+00 -8.82703411e-01 -8.47257592e-01
 -8.20482527e-01 -7.87717717e-01 -7.73176410e-01 -7.48746738e-01
 -7.38148650e-01 -7.22631574e-01 -7.15564260e-01 -6.88854836e-01
 -6.58174799e-01 -6.31370099e-01 -5.92049303e-01 -5.83149902e-01
 -5.69835110e-01 -5.53169401e-01 -5.46187851e-01 -5.36671176e-01
 -5.09090911e-01 -4.91465301e-01 -4.80657197e-01 -4.64432527e-01
 -4.46355573e-01 -4.30919274e-01 -4.12344789e-01 -4.09612622e-01
 -4.05942986e-01 -4.01877116e-01 -3.96857461e-01 -3.90227886e-01
 -3.71167418e-01 -3.59197680e-01 -3.57077703e-01 -3.43113528e-01
 -3.35101140e-01 -3.25634436e-01 -3.20914083e-01 -3.11449894e-01
 -2.97209166e-01 -2.96334773e-01 -2.80735576e-01 -2.69906783e-01
 -2.53312322e-01 -2.48639043e-01 -2.34835652e-01 -2.22262572e-01
 -2.08260420e-01 -1.98982485e-01 -1.83748288e-01 -1.66135939e-01
 -1.22814755e-01 -6.49771069e-03  4.48694636e-02  6.41983667e-02
  9.27416769e-02  1.18704983e-01  1.30229787e-01  1.65166411e-01
  1.70079523e-01  2.18219023e-01  2.30681706e-01  2.37036628e-01
  2.54598594e-01  2.66608607e-01  2.86304971e-01  2.96569240e-01
  3.21281199e-01  3.30473426e-01  3.51246752e-01  3.62486877e-01
  3.68572136e-01  3.91394555e-01  4.05425376e-01  4.06906216e-01
  4.17508352e-01  4.32154168e-01  4.52075239e-01  4.90835950e-01
  4.95247335e-01  5.00952216e-01  5.27076801e-01  5.39542835e-01
  5.76866325e-01  5.82996461e-01  6.00971641e-01  6.26767383e-01
  6.34071894e-01  6.67483118e-01  6.77855769e-01  6.86462307e-01
  6.93480572e-01  7.28394190e-01  7.52349189e-01  7.80484288e-01
  8.19871858e-01  8.38574022e-01  8.42309438e-01  8.72755390e-01
  8.96891809e-01  9.53533263e-01  1.00966384e+00  1.12135825e+00]
nelec by numeric integration = 145.99999994836404
    CPU time for vxc     37.71 sec, wall time     15.61 sec
E1 = -4132.718938147403  Ecoul = 1911.1620249963644  Exc = -124.80381124169068
cycle= 3 E= -835.699484443239  delta_E= -0.0316  |g|= 0.133  |ddm|= 0.661
    CPU time for cycle= 3     38.16 sec, wall time     15.69 sec
  HOMO = -0.125813909564844  LUMO = -0.00950680862913349
  mo_energy =
[-1.00371605e+01 -1.00365132e+01 -1.00288829e+01 -1.00281747e+01
 -1.00263674e+01 -1.00252983e+01 -1.00238075e+01 -1.00217889e+01
 -1.00213804e+01 -1.00203130e+01 -1.00202247e+01 -1.00178512e+01
 -1.00176203e+01 -1.00174480e+01 -1.00171238e+01 -1.00154142e+01
 -1.00145628e+01 -1.00141892e+01 -1.00132961e+01 -1.00090423e+01
 -1.00079810e+01 -9.99427351e+00 -8.83806728e-01 -8.50790108e-01
 -8.22363025e-01 -7.91562247e-01 -7.77378152e-01 -7.55535059e-01
 -7.39628626e-01 -7.26936443e-01 -7.19877476e-01 -6.94003902e-01
 -6.59597980e-01 -6.34513119e-01 -5.94468191e-01 -5.88712799e-01
 -5.72309231e-01 -5.55782795e-01 -5.49236991e-01 -5.38268046e-01
 -5.13643849e-01 -4.93505690e-01 -4.81822609e-01 -4.66311047e-01
 -4.48097414e-01 -4.34400004e-01 -4.16774967e-01 -4.11646930e-01
 -4.09730338e-01 -4.05575913e-01 -3.98683497e-01 -3.91867678e-01
 -3.75430877e-01 -3.62574342e-01 -3.61205899e-01 -3.46082074e-01
 -3.37573920e-01 -3.31065044e-01 -3.24175312e-01 -3.15234827e-01
 -3.03997940e-01 -3.00630451e-01 -2.85386089e-01 -2.72312701e-01
 -2.57605261e-01 -2.52604969e-01 -2.38777860e-01 -2.28171040e-01
 -2.13875548e-01 -2.01917966e-01 -1.85580077e-01 -1.72161459e-01
 -1.25813910e-01 -9.50680863e-03  3.81152799e-02  6.19939941e-02
  8.79332553e-02  1.10671722e-01  1.26929214e-01  1.57787408e-01
  1.69207828e-01  2.14013777e-01  2.25977219e-01  2.34215488e-01
  2.53914783e-01  2.61576753e-01  2.82550975e-01  2.93326991e-01
  3.18565615e-01  3.26256094e-01  3.43960839e-01  3.59036770e-01
  3.67630353e-01  3.88348463e-01  4.01532055e-01  4.02698595e-01
  4.13932748e-01  4.30366321e-01  4.50768905e-01  4.89815385e-01
  4.94562896e-01  4.98571864e-01  5.20296137e-01  5.35879452e-01
  5.71320273e-01  5.77382408e-01  6.03240884e-01  6.26249952e-01
  6.29993684e-01  6.61979457e-01  6.70843683e-01  6.81116549e-01
  6.89250563e-01  7.26613235e-01  7.48752959e-01  7.74407054e-01
  8.18510008e-01  8.33448357e-01  8.36745068e-01  8.65661738e-01
  8.99135612e-01  9.51091273e-01  1.00963257e+00  1.11896372e+00]
nelec by numeric integration = 145.9999999391191
    CPU time for vxc     38.36 sec, wall time     15.92 sec
E1 = -4132.734044147771  Ecoul = 1911.184894674031  Exc = -124.81717194444556
cycle= 4 E= -835.705081468695  delta_E= -0.0056  |g|= 0.0478  |ddm|= 0.251
    CPU time for cycle= 4     38.79 sec, wall time     15.99 sec
  HOMO = -0.125593546876215  LUMO = -0.00911284267466984
  mo_energy =
[-1.00326656e+01 -1.00316456e+01 -1.00286060e+01 -1.00267164e+01
 -1.00214642e+01 -1.00207394e+01 -1.00205183e+01 -1.00201429e+01
 -1.00198572e+01 -1.00197057e+01 -1.00190958e+01 -1.00182523e+01
 -1.00180886e+01 -1.00165429e+01 -1.00151035e+01 -1.00149140e+01
 -1.00140987e+01 -1.00126874e+01 -1.00125866e+01 -1.00106975e+01
 -1.00071340e+01 -1.00053823e+01 -8.81429079e-01 -8.48924208e-01
 -8.21247630e-01 -7.90103504e-01 -7.77067563e-01 -7.53787462e-01
 -7.39539517e-01 -7.26918830e-01 -7.18990410e-01 -6.92598235e-01
 -6.59516046e-01 -6.33547123e-01 -5.94148586e-01 -5.88185867e-01
 -5.71001092e-01 -5.55328993e-01 -5.48540831e-01 -5.37434622e-01
 -5.12428830e-01 -4.92553800e-01 -4.81619056e-01 -4.65374852e-01
 -4.47898516e-01 -4.33681642e-01 -4.15450060e-01 -4.11913149e-01
 -4.09988874e-01 -4.05799738e-01 -3.97319319e-01 -3.90305717e-01
 -3.73868944e-01 -3.61828085e-01 -3.59710479e-01 -3.46135523e-01
 -3.36917113e-01 -3.29046645e-01 -3.23570169e-01 -3.15179980e-01
 -3.02372530e-01 -2.99007826e-01 -2.86033703e-01 -2.72003266e-01
 -2.57807906e-01 -2.52141003e-01 -2.38250812e-01 -2.27734200e-01
 -2.14274158e-01 -2.01782398e-01 -1.85860085e-01 -1.71089609e-01
 -1.25593547e-01 -9.11284267e-03  3.93268456e-02  6.11247036e-02
  8.83186420e-02  1.11745322e-01  1.27472511e-01  1.58161253e-01
  1.69373160e-01  2.13394059e-01  2.26583633e-01  2.34669464e-01
  2.53439254e-01  2.63188500e-01  2.82651779e-01  2.94477913e-01
  3.18526586e-01  3.28438934e-01  3.46299101e-01  3.59385457e-01
  3.69238713e-01  3.90671218e-01  4.02801606e-01  4.03829378e-01
  4.12991775e-01  4.31218574e-01  4.52066198e-01  4.90063540e-01
  4.93858493e-01  4.98633331e-01  5.22335947e-01  5.35973931e-01
  5.72849439e-01  5.77750381e-01  6.02667955e-01  6.25549100e-01
  6.29884404e-01  6.63919083e-01  6.72647025e-01  6.81106722e-01
  6.90751096e-01  7.27502373e-01  7.49963089e-01  7.73847181e-01
  8.20269590e-01  8.37069471e-01  8.38911528e-01  8.64583662e-01
  8.98483430e-01  9.52589008e-01  1.01206017e+00  1.12164182e+00]
nelec by numeric integration = 145.99999994721173
    CPU time for vxc     41.32 sec, wall time     17.77 sec
E1 = -4132.592790657596  Ecoul = 1911.0392497474684  Exc = -124.81343484941915
cycle= 5 E= -835.705735810057  delta_E= -0.000654  |g|= 0.0214  |ddm|= 0.0989
    CPU time for cycle= 5     41.57 sec, wall time     17.82 sec
  HOMO = -0.12457094124893  LUMO = -0.00797750938180083
  mo_energy =
[-1.00341877e+01 -1.00326750e+01 -1.00269740e+01 -1.00260111e+01
 -1.00221335e+01 -1.00218331e+01 -1.00202720e+01 -1.00196404e+01
 -1.00193538e+01 -1.00191869e+01 -1.00174965e+01 -1.00169966e+01
 -1.00155178e+01 -1.00146392e+01 -1.00142586e+01 -1.00135113e+01
 -1.00132317e+01 -1.00126634e+01 -1.00108661e+01 -1.00095261e+01
 -1.00070059e+01 -9.99983548e+00 -8.81395446e-01 -8.48202647e-01
 -8.20399988e-01 -7.89771538e-01 -7.76575956e-01 -7.53402678e-01
 -7.38480778e-01 -7.26533872e-01 -7.18329787e-01 -6.92138067e-01
 -6.58352022e-01 -6.32967006e-01 -5.93400536e-01 -5.87641654e-01
 -5.70595934e-01 -5.54726622e-01 -5.48064773e-01 -5.37151247e-01
 -5.12041404e-01 -4.92123645e-01 -4.80935135e-01 -4.64778729e-01
 -4.47048947e-01 -4.33291020e-01 -4.15198731e-01 -4.11511954e-01
 -4.09304909e-01 -4.05148494e-01 -3.97047014e-01 -3.90162551e-01
 -3.73469083e-01 -3.61662496e-01 -3.59236172e-01 -3.45157123e-01
 -3.36483935e-01 -3.29084675e-01 -3.22914611e-01 -3.14805350e-01
 -3.02134902e-01 -2.98848397e-01 -2.85483855e-01 -2.71395305e-01
 -2.56985851e-01 -2.51327683e-01 -2.37639945e-01 -2.26968288e-01
 -2.13877531e-01 -2.01165049e-01 -1.86020847e-01 -1.70675466e-01
 -1.24570941e-01 -7.97750938e-03  3.98675961e-02  6.18209838e-02
  8.87967138e-02  1.12453009e-01  1.28277885e-01  1.58827381e-01
  1.68994308e-01  2.13921102e-01  2.27078645e-01  2.35444148e-01
  2.54677045e-01  2.63401411e-01  2.83474344e-01  2.95043401e-01
  3.18947077e-01  3.28516448e-01  3.46137779e-01  3.60183088e-01
  3.69422220e-01  3.90582518e-01  4.03144410e-01  4.04208491e-01
  4.13490397e-01  4.31650213e-01  4.52521503e-01  4.90525412e-01
  4.93967059e-01  4.99818932e-01  5.22713413e-01  5.36641300e-01
  5.73517599e-01  5.78690347e-01  6.04047606e-01  6.26481524e-01
  6.30378269e-01  6.64338180e-01  6.73288010e-01  6.81750111e-01
  6.91227356e-01  7.28408576e-01  7.50503552e-01  7.74350955e-01
  8.20942170e-01  8.37044747e-01  8.39318489e-01  8.65429513e-01
  9.00211128e-01  9.53133761e-01  1.01221681e+00  1.12146465e+00]
nelec by numeric integration = 145.99999994636346
    CPU time for vxc     39.15 sec, wall time     16.52 sec
E1 = -4132.577111968257  Ecoul = 1911.0220626250712  Exc = -124.8120826693936
cycle= 6 E= -835.70589206309  delta_E= -0.000156  |g|= 0.00552  |ddm|= 0.0383
    CPU time for cycle= 6     39.72 sec, wall time     16.61 sec
  HOMO = -0.124686899369352  LUMO = -0.00800230441579873
  mo_energy =
[-1.00336507e+01 -1.00326284e+01 -1.00275357e+01 -1.00252361e+01
 -1.00220318e+01 -1.00211300e+01 -1.00203506e+01 -1.00195000e+01
 -1.00194056e+01 -1.00182977e+01 -1.00181771e+01 -1.00169389e+01
 -1.00150181e+01 -1.00143190e+01 -1.00135820e+01 -1.00132042e+01
 -1.00124237e+01 -1.00117499e+01 -1.00111783e+01 -1.00094662e+01
 -1.00071350e+01 -1.00009853e+01 -8.81150779e-01 -8.48255941e-01
 -8.20435471e-01 -7.89478376e-01 -7.76301584e-01 -7.53272461e-01
 -7.38520083e-01 -7.26184685e-01 -7.18269449e-01 -6.91986927e-01
 -6.58424066e-01 -6.32883198e-01 -5.93349523e-01 -5.87520171e-01
 -5.70601198e-01 -5.54599837e-01 -5.47991593e-01 -5.36980151e-01
 -5.11930259e-01 -4.92034056e-01 -4.80841123e-01 -4.64862132e-01
 -4.47055777e-01 -4.33161470e-01 -4.15117771e-01 -4.11264397e-01
 -4.09250943e-01 -4.04882911e-01 -3.96981385e-01 -3.90071249e-01
 -3.73515529e-01 -3.61331470e-01 -3.59215148e-01 -3.45268485e-01
 -3.36408930e-01 -3.28978602e-01 -3.22857827e-01 -3.14443560e-01
 -3.02165735e-01 -2.98606135e-01 -2.85197917e-01 -2.71380453e-01
 -2.56881382e-01 -2.51401665e-01 -2.37575086e-01 -2.26899542e-01
 -2.13491857e-01 -2.01023149e-01 -1.85614620e-01 -1.70543302e-01
 -1.24686899e-01 -8.00230442e-03  4.00289432e-02  6.21011123e-02
  8.90725783e-02  1.12545825e-01  1.28300757e-01  1.59031876e-01
  1.69384752e-01  2.14421331e-01  2.27329225e-01  2.35574043e-01
  2.54404000e-01  2.63419547e-01  2.83492372e-01  2.95078297e-01
  3.19264882e-01  3.28500226e-01  3.46075714e-01  3.60137178e-01
  3.69609185e-01  3.90645261e-01  4.03298534e-01  4.04305488e-01
  4.14004023e-01  4.31711084e-01  4.52513335e-01  4.90707813e-01
  4.94314044e-01  4.99666376e-01  5.22738862e-01  5.36803118e-01
  5.73605746e-01  5.78701551e-01  6.03854988e-01  6.26563390e-01
  6.30567370e-01  6.64434636e-01  6.73297950e-01  6.82038302e-01
  6.91247308e-01  7.28370137e-01  7.50593035e-01  7.74707117e-01
  8.20850314e-01  8.37102443e-01  8.39387470e-01  8.65865406e-01
  8.99902355e-01  9.53445346e-01  1.01235374e+00  1.12180422e+00]
nelec by numeric integration = 145.99999994749666
    CPU time for vxc     41.30 sec, wall time     17.50 sec
E1 = -4132.565799772241  Ecoul = 1911.0105518109654  Exc = -124.8118944238771
cycle= 7 E= -835.705902435663  delta_E= -1.04e-05  |g|= 0.00133  |ddm|= 0.00916
    CPU time for cycle= 7     41.94 sec, wall time     17.61 sec
  HOMO = -0.124700885713989  LUMO = -0.00800036702408121
  mo_energy =
[-1.00335440e+01 -1.00326020e+01 -1.00274696e+01 -1.00255596e+01
 -1.00219200e+01 -1.00211378e+01 -1.00202648e+01 -1.00195246e+01
 -1.00190052e+01 -1.00184455e+01 -1.00181869e+01 -1.00170168e+01
 -1.00150819e+01 -1.00144429e+01 -1.00135865e+01 -1.00133558e+01
 -1.00125046e+01 -1.00118638e+01 -1.00112371e+01 -1.00095296e+01
 -1.00071502e+01 -1.00009364e+01 -8.81189533e-01 -8.48268690e-01
 -8.20432952e-01 -7.89515457e-01 -7.76291806e-01 -7.53272398e-01
 -7.38539032e-01 -7.26186933e-01 -7.18281932e-01 -6.91999682e-01
 -6.58434474e-01 -6.32890649e-01 -5.93350829e-01 -5.87545144e-01
 -5.70607889e-01 -5.54623819e-01 -5.47977639e-01 -5.36999223e-01
 -5.11936562e-01 -4.92052773e-01 -4.80856956e-01 -4.64870513e-01
 -4.47069340e-01 -4.33180047e-01 -4.15138335e-01 -4.11279583e-01
 -4.09256496e-01 -4.04936033e-01 -3.96971636e-01 -3.90063186e-01
 -3.73529279e-01 -3.61358335e-01 -3.59236389e-01 -3.45293678e-01
 -3.36413021e-01 -3.28979166e-01 -3.22868983e-01 -3.14482426e-01
 -3.02186123e-01 -2.98642967e-01 -2.85184984e-01 -2.71372604e-01
 -2.56887045e-01 -2.51410732e-01 -2.37575753e-01 -2.26925277e-01
 -2.13506536e-01 -2.01035161e-01 -1.85563878e-01 -1.70565182e-01
 -1.24700886e-01 -8.00036702e-03  4.00108766e-02  6.21240312e-02
  8.90348908e-02  1.12513426e-01  1.28298899e-01  1.59025623e-01
  1.69510322e-01  2.14394193e-01  2.27299704e-01  2.35555502e-01
  2.54393434e-01  2.63416729e-01  2.83485353e-01  2.95067610e-01
  3.19258500e-01  3.28519880e-01  3.46052328e-01  3.60092069e-01
  3.69599441e-01  3.90637323e-01  4.03266625e-01  4.04274999e-01
  4.13903658e-01  4.31697263e-01  4.52505239e-01  4.90667117e-01
  4.94267134e-01  4.99653614e-01  5.22722528e-01  5.36779844e-01
  5.73565594e-01  5.78669668e-01  6.03891191e-01  6.26601174e-01
  6.30580914e-01  6.64422673e-01  6.73267092e-01  6.82024037e-01
  6.91227647e-01  7.28361795e-01  7.50602651e-01  7.74752873e-01
  8.20857137e-01  8.37085969e-01  8.39365922e-01  8.65869606e-01
  8.99928258e-01  9.53364062e-01  1.01236317e+00  1.12175784e+00]
nelec by numeric integration = 145.99999994707753
    CPU time for vxc     38.90 sec, wall time     16.33 sec
E1 = -4132.569973627018  Ecoul = 1911.0148087903701  Exc = -124.81197812150076
cycle= 8 E= -835.705903008659  delta_E= -5.73e-07  |g|= 0.00041  |ddm|= 0.00235
    CPU time for cycle= 8     39.57 sec, wall time     16.50 sec
  HOMO = -0.124707768061909  LUMO = -0.00799838666657981
  mo_energy =
[-1.00336219e+01 -1.00326257e+01 -1.00274869e+01 -1.00255174e+01
 -1.00218781e+01 -1.00212248e+01 -1.00202235e+01 -1.00195305e+01
 -1.00191355e+01 -1.00183819e+01 -1.00182273e+01 -1.00170210e+01
 -1.00151442e+01 -1.00144247e+01 -1.00136123e+01 -1.00133226e+01
 -1.00125377e+01 -1.00118377e+01 -1.00112079e+01 -1.00095052e+01
 -1.00071362e+01 -1.00009426e+01 -8.81178336e-01 -8.48283534e-01
 -8.20448771e-01 -7.89501549e-01 -7.76304043e-01 -7.53284092e-01
 -7.38545809e-01 -7.26195210e-01 -7.18297050e-01 -6.92003577e-01
 -6.58437865e-01 -6.32895903e-01 -5.93361813e-01 -5.87552113e-01
 -5.70618948e-01 -5.54626484e-01 -5.47990564e-01 -5.36994404e-01
 -5.11944767e-01 -4.92051851e-01 -4.80860888e-01 -4.64881296e-01
 -4.47074275e-01 -4.33178156e-01 -4.15153413e-01 -4.11297042e-01
 -4.09267227e-01 -4.04931670e-01 -3.96971709e-01 -3.90059112e-01
 -3.73537409e-01 -3.61349031e-01 -3.59243682e-01 -3.45293139e-01
 -3.36413641e-01 -3.28979707e-01 -3.22876746e-01 -3.14479875e-01
 -3.02188858e-01 -2.98628862e-01 -2.85194696e-01 -2.71376115e-01
 -2.56895633e-01 -2.51418231e-01 -2.37583961e-01 -2.26937642e-01
 -2.13511593e-01 -2.01040478e-01 -1.85552614e-01 -1.70573258e-01
 -1.24707768e-01 -7.99838667e-03  4.00044061e-02  6.21095922e-02
  8.90342147e-02  1.12506705e-01  1.28292934e-01  1.59014010e-01
  1.69524869e-01  2.14400116e-01  2.27301408e-01  2.35554566e-01
  2.54396154e-01  2.63411593e-01  2.83480498e-01  2.95060447e-01
  3.19261544e-01  3.28517812e-01  3.46054947e-01  3.60078849e-01
  3.69600708e-01  3.90628090e-01  4.03273484e-01  4.04271432e-01
  4.13911445e-01  4.31705147e-01  4.52497921e-01  4.90662742e-01
  4.94270704e-01  4.99649644e-01  5.22710799e-01  5.36774796e-01
  5.73558783e-01  5.78669280e-01  6.03873921e-01  6.26573152e-01
  6.30555070e-01  6.64411772e-01  6.73253224e-01  6.82015909e-01
  6.91233948e-01  7.28359980e-01  7.50588906e-01  7.74724660e-01
  8.20844406e-01  8.37068232e-01  8.39379926e-01  8.65849885e-01
  8.99909984e-01  9.53385041e-01  1.01235476e+00  1.12177949e+00]
nelec by numeric integration = 145.999999946987
    CPU time for vxc     38.71 sec, wall time     16.09 sec
E1 = -4132.570482494024  Ecoul = 1911.0153409964325  Exc = -124.8120015157839
cycle= 9 E= -835.705903063885  delta_E= -5.52e-08  |g|= 0.000154  |ddm|= 0.000727
    CPU time for cycle= 9     39.40 sec, wall time     16.21 sec
  HOMO = -0.12470975613012  LUMO = -0.00799717588897533
  mo_energy =
[-1.00336189e+01 -1.00326155e+01 -1.00274793e+01 -1.00254954e+01
 -1.00219019e+01 -1.00211980e+01 -1.00202296e+01 -1.00195274e+01
 -1.00191248e+01 -1.00183843e+01 -1.00182233e+01 -1.00170245e+01
 -1.00151095e+01 -1.00144209e+01 -1.00136141e+01 -1.00133276e+01
 -1.00125335e+01 -1.00118824e+01 -1.00112351e+01 -1.00095010e+01
 -1.00071276e+01 -1.00009620e+01 -8.81181398e-01 -8.48278529e-01
 -8.20446107e-01 -7.89503951e-01 -7.76305433e-01 -7.53282576e-01
 -7.38543661e-01 -7.26198075e-01 -7.18295742e-01 -6.92000815e-01
 -6.58437336e-01 -6.32895764e-01 -5.93362874e-01 -5.87552177e-01
 -5.70614899e-01 -5.54625941e-01 -5.47990349e-01 -5.36995819e-01
 -5.11944159e-01 -4.92050391e-01 -4.80860606e-01 -4.64879674e-01
 -4.47073934e-01 -4.33178333e-01 -4.15149864e-01 -4.11296434e-01
 -4.09266401e-01 -4.04932770e-01 -3.96971354e-01 -3.90059255e-01
 -3.73534411e-01 -3.61350732e-01 -3.59240233e-01 -3.45294764e-01
 -3.36414595e-01 -3.28974434e-01 -3.22875675e-01 -3.14481730e-01
 -3.02188837e-01 -2.98630745e-01 -2.85196358e-01 -2.71374677e-01
 -2.56896039e-01 -2.51416158e-01 -2.37582981e-01 -2.26935513e-01
 -2.13515982e-01 -2.01041371e-01 -1.85560059e-01 -1.70571426e-01
 -1.24709756e-01 -7.99717589e-03  4.00075180e-02  6.21070401e-02
  8.90335460e-02  1.12507768e-01  1.28294499e-01  1.59015083e-01
  1.69514876e-01  2.14395033e-01  2.27301734e-01  2.35553518e-01
  2.54393579e-01  2.63415357e-01  2.83479414e-01  2.95063351e-01
  3.19258785e-01  3.28520400e-01  3.46056366e-01  3.60079030e-01
  3.69600203e-01  3.90633701e-01  4.03279332e-01  4.04273728e-01
  4.13910236e-01  4.31706858e-01  4.52504343e-01  4.90661083e-01
  4.94265604e-01  4.99649918e-01  5.22716365e-01  5.36775055e-01
  5.73561755e-01  5.78668016e-01  6.03873528e-01  6.26572688e-01
  6.30556197e-01  6.64413335e-01  6.73256561e-01  6.82014792e-01
  6.91234269e-01  7.28360772e-01  7.50590386e-01  7.74722982e-01
  8.20846775e-01  8.37075695e-01  8.39373919e-01  8.65848696e-01
  8.99913090e-01  9.53382559e-01  1.01235319e+00  1.12178110e+00]
nelec by numeric integration = 145.99999994705436
    CPU time for vxc     39.45 sec, wall time     16.68 sec
E1 = -4132.570234857502  Ecoul = 1911.0150947302784  Exc = -124.81200289397947
cycle= 10 E= -835.705903071713  delta_E= -7.83e-09  |g|= 6.16e-05  |ddm|= 0.000295
    CPU time for cycle= 10     40.08 sec, wall time     16.77 sec
  HOMO = -0.124710729936637  LUMO = -0.00799812963986029
  mo_energy =
[-1.00336105e+01 -1.00326175e+01 -1.00274848e+01 -1.00255065e+01
 -1.00219059e+01 -1.00211913e+01 -1.00202412e+01 -1.00195271e+01
 -1.00191269e+01 -1.00183944e+01 -1.00182231e+01 -1.00170136e+01
 -1.00151207e+01 -1.00144298e+01 -1.00136154e+01 -1.00133306e+01
 -1.00125269e+01 -1.00118716e+01 -1.00112147e+01 -1.00095136e+01
 -1.00071368e+01 -1.00009574e+01 -8.81185787e-01 -8.48278702e-01
 -8.20446642e-01 -7.89509026e-01 -7.76306676e-01 -7.53282376e-01
 -7.38544496e-01 -7.26199448e-01 -7.18293961e-01 -6.92003247e-01
 -6.58437358e-01 -6.32897588e-01 -5.93362730e-01 -5.87551697e-01
 -5.70615193e-01 -5.54628780e-01 -5.47990601e-01 -5.36998457e-01
 -5.11944740e-01 -4.92053179e-01 -4.80862337e-01 -4.64878324e-01
 -4.47074586e-01 -4.33179525e-01 -4.15147593e-01 -4.11295054e-01
 -4.09265885e-01 -4.04934875e-01 -3.96974619e-01 -3.90062825e-01
 -3.73533605e-01 -3.61354947e-01 -3.59240595e-01 -3.45292017e-01
 -3.36416034e-01 -3.28977596e-01 -3.22875855e-01 -3.14484979e-01
 -3.02184424e-01 -2.98635363e-01 -2.85198438e-01 -2.71376548e-01
 -2.56896218e-01 -2.51415525e-01 -2.37583782e-01 -2.26933266e-01
 -2.13517018e-01 -2.01042699e-01 -1.85565987e-01 -1.70572943e-01
 -1.24710730e-01 -7.99812964e-03  4.00080720e-02  6.21070594e-02
  8.90325605e-02  1.12510021e-01  1.28292619e-01  1.59014497e-01
  1.69506789e-01  2.14391715e-01  2.27298455e-01  2.35551531e-01
  2.54397828e-01  2.63414929e-01  2.83480254e-01  2.95062103e-01
  3.19255350e-01  3.28518393e-01  3.46061487e-01  3.60085622e-01
  3.69596274e-01  3.90633111e-01  4.03273050e-01  4.04273171e-01
  4.13907581e-01  4.31702451e-01  4.52500353e-01  4.90662754e-01
  4.94266753e-01  4.99650944e-01  5.22717352e-01  5.36772907e-01
  5.73562318e-01  5.78668970e-01  6.03873901e-01  6.26573210e-01
  6.30557892e-01  6.64413636e-01  6.73258745e-01  6.82011763e-01
  6.91231981e-01  7.28358754e-01  7.50588830e-01  7.74721824e-01
  8.20845310e-01  8.37075838e-01  8.39370854e-01  8.65846295e-01
  8.99911388e-01  9.53378593e-01  1.01235126e+00  1.12177352e+00]
nelec by numeric integration = 145.99999994706064
    CPU time for vxc     39.67 sec, wall time     16.54 sec
E1 = -4132.570392221315  Ecoul = 1911.0152510785665  Exc = -124.81200187978541
cycle= 11 E= -835.705903073044  delta_E= -1.33e-09  |g|= 2.24e-05  |ddm|= 0.00013
    CPU time for cycle= 11     40.26 sec, wall time     16.63 sec
  HOMO = -0.124710222862047  LUMO = -0.00799705147042612
  mo_energy =
[-1.00336119e+01 -1.00326150e+01 -1.00274833e+01 -1.00255071e+01
 -1.00219012e+01 -1.00211954e+01 -1.00202405e+01 -1.00195264e+01
 -1.00191248e+01 -1.00183928e+01 -1.00182254e+01 -1.00170164e+01
 -1.00151177e+01 -1.00144267e+01 -1.00136146e+01 -1.00133283e+01
 -1.00125276e+01 -1.00118694e+01 -1.00112202e+01 -1.00095053e+01
 -1.00071302e+01 -1.00009581e+01 -8.81184569e-01 -8.48277924e-01
 -8.20446541e-01 -7.89507429e-01 -7.76305842e-01 -7.53281835e-01
 -7.38543558e-01 -7.26198046e-01 -7.18294095e-01 -6.92002176e-01
 -6.58436753e-01 -6.32896887e-01 -5.93362464e-01 -5.87551490e-01
 -5.70614477e-01 -5.54627670e-01 -5.47989980e-01 -5.36997756e-01
 -5.11944133e-01 -4.92052246e-01 -4.80861753e-01 -4.64878337e-01
 -4.47074287e-01 -4.33178314e-01 -4.15147955e-01 -4.11294759e-01
 -4.09265411e-01 -4.04934067e-01 -3.96973608e-01 -3.90061778e-01
 -3.73533162e-01 -3.61353976e-01 -3.59240024e-01 -3.45292534e-01
 -3.36415286e-01 -3.28976267e-01 -3.22875809e-01 -3.14483397e-01
 -3.02185616e-01 -2.98633680e-01 -2.85197253e-01 -2.71375857e-01
 -2.56895757e-01 -2.51415425e-01 -2.37582829e-01 -2.26933508e-01
 -2.13515715e-01 -2.01041985e-01 -1.85564801e-01 -1.70572405e-01
 -1.24710223e-01 -7.99705147e-03  4.00084170e-02  6.21079557e-02
  8.90338401e-02  1.12509625e-01  1.28293911e-01  1.59015117e-01
  1.69508233e-01  2.14393402e-01  2.27299646e-01  2.35552325e-01
  2.54396697e-01  2.63415438e-01  2.83480473e-01  2.95062888e-01
  3.19256530e-01  3.28519306e-01  3.46059902e-01  3.60084248e-01
  3.69597011e-01  3.90633277e-01  4.03275097e-01  4.04272982e-01
  4.13908280e-01  4.31703653e-01  4.52502162e-01  4.90663121e-01
  4.94267343e-01  4.99651269e-01  5.22717659e-01  5.36773413e-01
  5.73562512e-01  5.78669081e-01  6.03873861e-01  6.26573943e-01
  6.30558334e-01  6.64413897e-01  6.73259019e-01  6.82013041e-01
  6.91233742e-01  7.28360044e-01  7.50589697e-01  7.74723448e-01
  8.20845934e-01  8.37076859e-01  8.39372842e-01  8.65847624e-01
  8.99912094e-01  9.53379741e-01  1.01235188e+00  1.12177390e+00]
nelec by numeric integration = 145.9999999470592
    CPU time for vxc     38.17 sec, wall time     15.80 sec
E1 = -4132.570309524503  Ecoul = 1911.0151680855306  Exc = -124.8120015837697
cycle= 12 E= -835.705903073251  delta_E= -2.07e-10  |g|= 1.01e-05  |ddm|= 5.23e-05
    CPU time for cycle= 12     38.52 sec, wall time     15.85 sec
  HOMO = -0.124710361960557  LUMO = -0.00799696990117689
  mo_energy =
[-1.00336118e+01 -1.00326159e+01 -1.00274829e+01 -1.00255045e+01
 -1.00219014e+01 -1.00211943e+01 -1.00202377e+01 -1.00195273e+01
 -1.00191241e+01 -1.00183902e+01 -1.00182241e+01 -1.00170162e+01
 -1.00151181e+01 -1.00144261e+01 -1.00136132e+01 -1.00133281e+01
 -1.00125290e+01 -1.00118703e+01 -1.00112196e+01 -1.00095073e+01
 -1.00071314e+01 -1.00009589e+01 -8.81183689e-01 -8.48278228e-01
 -8.20446237e-01 -7.89506657e-01 -7.76305405e-01 -7.53281687e-01
 -7.38543859e-01 -7.26197881e-01 -7.18294045e-01 -6.92001909e-01
 -6.58436867e-01 -6.32896510e-01 -5.93362356e-01 -5.87551298e-01
 -5.70614797e-01 -5.54627413e-01 -5.47989964e-01 -5.36997307e-01
 -5.11943933e-01 -4.92052017e-01 -4.80861463e-01 -4.64878502e-01
 -4.47074154e-01 -4.33178486e-01 -4.15147976e-01 -4.11294834e-01
 -4.09265575e-01 -4.04933558e-01 -3.96973251e-01 -3.90061375e-01
 -3.73533463e-01 -3.61353184e-01 -3.59240125e-01 -3.45292721e-01
 -3.36415178e-01 -3.28976393e-01 -3.22875479e-01 -3.14483060e-01
 -3.02185568e-01 -2.98633202e-01 -2.85196923e-01 -2.71375825e-01
 -2.56895627e-01 -2.51415572e-01 -2.37582904e-01 -2.26933538e-01
 -2.13515543e-01 -2.01041792e-01 -1.85563612e-01 -1.70572236e-01
 -1.24710362e-01 -7.99696990e-03  4.00085234e-02  6.21082151e-02
  8.90337821e-02  1.12509723e-01  1.28293777e-01  1.59015411e-01
  1.69509843e-01  2.14393961e-01  2.27300130e-01  2.35552774e-01
  2.54396376e-01  2.63415250e-01  2.83480426e-01  2.95062840e-01
  3.19257091e-01  3.28519187e-01  3.46059840e-01  3.60083855e-01
  3.69597834e-01  3.90633332e-01  4.03274960e-01  4.04273365e-01
  4.13908955e-01  4.31703827e-01  4.52501658e-01  4.90662801e-01
  4.94267137e-01  4.99650965e-01  5.22717379e-01  5.36773970e-01
  5.73562620e-01  5.78669088e-01  6.03874009e-01  6.26573809e-01
  6.30558211e-01  6.64414093e-01  6.73258585e-01  6.82013685e-01
  6.91233425e-01  7.28360010e-01  7.50589944e-01  7.74723716e-01
  8.20845944e-01  8.37076343e-01  8.39372897e-01  8.65848323e-01
  8.99911981e-01  9.53380711e-01  1.01235262e+00  1.12177585e+00]
nelec by numeric integration = 145.99999994705786
    CPU time for vxc     38.66 sec, wall time     15.92 sec
E1 = -4132.570298407435  Ecoul = 1911.0151568151632  Exc = -124.81200143050975
cycle= 13 E= -835.705903073291  delta_E= -4e-11  |g|= 3.56e-06  |ddm|= 2.07e-05
    CPU time for cycle= 13     39.18 sec, wall time     16.00 sec
  HOMO = -0.124710611813281  LUMO = -0.00799725976213268
  mo_energy =
[-1.00336125e+01 -1.00326158e+01 -1.00274840e+01 -1.00255060e+01
 -1.00219026e+01 -1.00211943e+01 -1.00202392e+01 -1.00195267e+01
 -1.00191255e+01 -1.00183928e+01 -1.00182251e+01 -1.00170163e+01
 -1.00151179e+01 -1.00144265e+01 -1.00136147e+01 -1.00133288e+01
 -1.00125279e+01 -1.00118700e+01 -1.00112197e+01 -1.00095063e+01
 -1.00071316e+01 -1.00009594e+01 -8.81184699e-01 -8.48278282e-01
 -8.20446713e-01 -7.89507436e-01 -7.76305981e-01 -7.53281994e-01
 -7.38543956e-01 -7.26198289e-01 -7.18294273e-01 -6.92002253e-01
 -6.58437081e-01 -6.32897013e-01 -5.93362715e-01 -5.87551587e-01
 -5.70614768e-01 -5.54627856e-01 -5.47990253e-01 -5.36997838e-01
 -5.11944294e-01 -4.92052380e-01 -4.80861915e-01 -4.64878592e-01
 -4.47074473e-01 -4.33178628e-01 -4.15148009e-01 -4.11294946e-01
 -4.09265652e-01 -4.04934212e-01 -3.96973693e-01 -3.90061805e-01
 -3.73533467e-01 -3.61353813e-01 -3.59240236e-01 -3.45292725e-01
 -3.36415443e-01 -3.28976421e-01 -3.22875907e-01 -3.14483616e-01
 -3.02185521e-01 -2.98633816e-01 -2.85197417e-01 -2.71375985e-01
 -2.56895921e-01 -2.51415631e-01 -2.37583110e-01 -2.26933603e-01
 -2.13515953e-01 -2.01042225e-01 -1.85564300e-01 -1.70572474e-01
 -1.24710612e-01 -7.99725976e-03  4.00083813e-02  6.21076668e-02
  8.90335759e-02  1.12509596e-01  1.28293544e-01  1.59014998e-01
  1.69509122e-01  2.14393240e-01  2.27299566e-01  2.35552091e-01
  2.54396519e-01  2.63415268e-01  2.83480207e-01  2.95062610e-01
  3.19256474e-01  3.28519132e-01  3.46060068e-01  3.60084146e-01
  3.69596983e-01  3.90633212e-01  4.03274907e-01  4.04273068e-01
  4.13908236e-01  4.31703628e-01  4.52501712e-01  4.90662837e-01
  4.94267104e-01  4.99650943e-01  5.22717480e-01  5.36773451e-01
  5.73562413e-01  5.78668880e-01  6.03873575e-01  6.26573493e-01
  6.30558052e-01  6.64413732e-01  6.73258713e-01  6.82013063e-01
  6.91233271e-01  7.28359652e-01  7.50589481e-01  7.74723109e-01
  8.20845623e-01  8.37076497e-01  8.39372259e-01  8.65847519e-01
  8.99911614e-01  9.53379627e-01  1.01235167e+00  1.12177462e+00]
nelec by numeric integration = 145.9999999470581
    CPU time for vxc     38.29 sec, wall time     15.99 sec
E1 = -4132.5703441432115  Ecoul = 1911.0152035249052  Exc = -124.81200240446377
Extra cycle  E= -835.70590307328  delta_E= 1.14e-11  |g|= 6.2e-06  |ddm|= 1.41e-05
    CPU time for scf_cycle    600.55 sec, wall time    247.37 sec
    CPU time for SCF    600.55 sec, wall time    247.37 sec
converged SCF energy = -835.70590307328
nelec by numeric integration = 145.9999999470581
    CPU time for vxc     38.18 sec, wall time     15.85 sec
 ** Mulliken pop  **
pop of  0 C 1s            1.99153
pop of  0 C 2s            1.13691
pop of  0 C 2px           0.95416
pop of  0 C 2py           0.94568
pop of  0 C 2pz           0.94266
pop of  1 C 1s            1.99106
pop of  1 C 2s            1.07808
pop of  1 C 2px           0.99234
pop of  1 C 2py           0.99452
pop of  1 C 2pz           0.94273
pop of  2 C 1s            1.99141
pop of  2 C 2s            1.21798
pop of  2 C 2px           0.95045
pop of  2 C 2py           0.93662
pop of  2 C 2pz           0.97103
pop of  3 C 1s            1.99053
pop of  3 C 2s            1.03137
pop of  3 C 2px           1.04661
pop of  3 C 2py           1.02517
pop of  3 C 2pz           1.06121
pop of  4 C 1s            1.99090
pop of  4 C 2s            1.09714
pop of  4 C 2px           1.02565
pop of  4 C 2py           0.96635
pop of  4 C 2pz           1.04775
pop of  5 C 1s            1.99174
pop of  5 C 2s            1.02567
pop of  5 C 2px           1.01388
pop of  5 C 2py           1.03316
pop of  5 C 2pz           0.97177
pop of  6 C 1s            1.99129
pop of  6 C 2s            1.17284
pop of  6 C 2px           0.96557
pop of  6 C 2py           0.99697
pop of  6 C 2pz           0.94798
pop of  7 C 1s            1.99149
pop of  7 C 2s            1.15211
pop of  7 C 2px           0.98357
pop of  7 C 2py           1.04481
pop of  7 C 2pz           0.94458
pop of  8 C 1s            1.99068
pop of  8 C 2s            1.08569
pop of  8 C 2px           0.99865
pop of  8 C 2py           0.97702
pop of  8 C 2pz           0.94531
pop of  9 C 1s            1.99072
pop of  9 C 2s            1.03168
pop of  9 C 2px           1.02006
pop of  9 C 2py           1.01547
pop of  9 C 2pz           0.94810
pop of  10 C 1s           1.99115
pop of  10 C 2s           1.17644
pop of  10 C 2px          0.97878
pop of  10 C 2py          0.93662
pop of  10 C 2pz          0.97503
pop of  11 C 1s           1.99064
pop of  11 C 2s           1.06216
pop of  11 C 2px          1.01005
pop of  11 C 2py          0.99550
pop of  11 C 2pz          1.01737
pop of  12 C 1s           1.99098
pop of  12 C 2s           1.17177
pop of  12 C 2px          0.98019
pop of  12 C 2py          0.92818
pop of  12 C 2pz          0.91791
pop of  13 C 1s           1.99031
pop of  13 C 2s           1.07171
pop of  13 C 2px          1.00275
pop of  13 C 2py          0.98125
pop of  13 C 2pz          0.97641
pop of  14 C 1s           1.99092
pop of  14 C 2s           1.14269
pop of  14 C 2px          0.99275
pop of  14 C 2py          0.95015
pop of  14 C 2pz          0.97646
pop of  15 C 1s           1.99132
pop of  15 C 2s           1.16118
pop of  15 C 2px          0.99555
pop of  15 C 2py          0.93675
pop of  15 C 2pz          1.00165
pop of  16 C 1s           1.99022
pop of  16 C 2s           1.07963
pop of  16 C 2px          1.02207
pop of  16 C 2py          0.96410
pop of  16 C 2pz          0.97376
pop of  17 C 1s           1.99095
pop of  17 C 2s           1.12016
pop of  17 C 2px          0.97769
pop of  17 C 2py          0.94992
pop of  17 C 2pz          0.95882
pop of  18 C 1s           1.99079
pop of  18 C 2s           1.15971
pop of  18 C 2px          0.99413
pop of  18 C 2py          0.94212
pop of  18 C 2pz          0.97741
pop of  19 C 1s           1.99090
pop of  19 C 2s           1.17394
pop of  19 C 2px          0.98699
pop of  19 C 2py          0.95813
pop of  19 C 2pz          0.97703
pop of  20 C 1s           1.99096
pop of  20 C 2s           1.16414
pop of  20 C 2px          0.99313
pop of  20 C 2py          0.97147
pop of  20 C 2pz          0.95125
pop of  21 C 1s           1.99150
pop of  21 C 2s           1.23543
pop of  21 C 2px          0.95695
pop of  21 C 2py          0.92339
pop of  21 C 2pz          0.92713
pop of  22 H 1s           0.91912
pop of  23 H 1s           0.89202
pop of  24 H 1s           0.87978
pop of  25 H 1s           1.00892
pop of  26 H 1s           0.90749
pop of  27 H 1s           0.88112
pop of  28 H 1s           0.92348
pop of  29 H 1s           0.91813
pop of  30 H 1s           0.94314
pop of  31 H 1s           0.90364
pop of  32 H 1s           0.91468
pop of  33 H 1s           0.91158
pop of  34 H 1s           0.92423
pop of  35 H 1s           0.95361
 ** Mulliken atomic charges  **
charge of    0C =      0.02906
charge of    1C =      0.00127
charge of    2C =     -0.06748
charge of    3C =     -0.15489
charge of    4C =     -0.12780
charge of    5C =     -0.03622
charge of    6C =     -0.07465
charge of    7C =     -0.11655
charge of    8C =      0.00266
charge of    9C =     -0.00602
charge of   10C =     -0.05803
charge of   11C =     -0.07573
charge of   12C =      0.01098
charge of   13C =     -0.02243
charge of   14C =     -0.05298
charge of   15C =     -0.08645
charge of   16C =     -0.02978
charge of   17C =      0.00246
charge of   18C =     -0.06415
charge of   19C =     -0.08698
charge of   20C =     -0.07094
charge of   21C =     -0.03442
charge of   22H =      0.08088
charge of   23H =      0.10798
charge of   24H =      0.12022
charge of   25H =     -0.00892
charge of   26H =      0.09251
charge of   27H =      0.11888
charge of   28H =      0.07652
charge of   29H =      0.08187
charge of   30H =      0.05686
charge of   31H =      0.09636
charge of   32H =      0.08532
charge of   33H =      0.08842
charge of   34H =      0.07577
charge of   35H =      0.04639
Dipole moment(X, Y, Z, Debye):  0.09400, -0.58927,  0.55679
nelec by numeric integration = 145.9999999470581
    CPU time for vxc     37.92 sec, wall time     15.80 sec
E1 = -4132.5703441432115  Ecoul = 1911.0152035249055  Exc = -124.81200240446378
nelec by numeric integration = 145.9999999470581
    CPU time for vxc     37.63 sec, wall time     15.78 sec
E1 = -4132.5703441432115  Ecoul = 1911.0152035249052  Exc = -124.81200240446378
