System: uname_result(system='Linux', node='cosmopc18', release='5.15.0-97-generic', version='#107-Ubuntu SMP Wed Feb 7 13:26:48 UTC 2024', machine='x86_64')  Threads 4
Python 3.11.8 (main, Feb 26 2024, 21:39:34) [GCC 11.2.0]
numpy 1.26.4  scipy 1.11.4
Date: Tue Apr  9 13:23:22 2024
PySCF version 2.3.0
PySCF path  /home/saade/miniconda3/envs/tutorial/lib/python3.11/site-packages/pyscf

[ENV] PYSCFAD_BACKEND torch
[CONFIG] conf_file None
[INPUT] verbose = 5
[INPUT] max_memory = 4000 
[INPUT] num. atoms = 36
[INPUT] num. electrons = 146
[INPUT] charge = 0
[INPUT] spin (= nelec alpha-beta = 2S) = 0
[INPUT] symmetry False subgroup None
[INPUT] Mole.unit = angstrom
[INPUT] Symbol           X                Y                Z      unit          X                Y                Z       unit  Magmom
[INPUT]  1 C     -0.067080000000   3.650597000000   0.645129000000 AA   -0.126762828436   6.898628521159   1.219117125015 Bohr   0.0
[INPUT]  2 C      0.012396000000   3.589354000000  -0.896729000000 AA    0.023425045040   6.782896024112  -1.694572217955 Bohr   0.0
[INPUT]  3 C     -0.291118000000   4.921114000000   1.107363000000 AA   -0.550133289931   9.299557687763   2.092612790477 Bohr   0.0
[INPUT]  4 C      0.067399000000   2.524752000000   1.466841000000 AA    0.127365651070   4.771089812448   2.771927758283 Bohr   0.0
[INPUT]  5 C      0.246344000000   4.901043000000  -1.603699000000 AA    0.465522692430   9.261628994717  -3.030551896239 Bohr   0.0
[INPUT]  6 C     -0.019081000000   2.369446000000  -1.484676000000 AA   -0.036057864183   4.477604006946  -2.805631023715 Bohr   0.0
[INPUT]  7 C      0.114123000000   6.038906000000  -0.784910000000 AA    0.215661214514  11.411878431993  -1.483264932432 Bohr   0.0
[INPUT]  8 C     -0.115989000000   6.018530000000   0.643779000000 AA   -0.219187443462  11.373373372479   1.216565994746 Bohr   0.0
[INPUT]  9 C      0.071876000000   1.253871000000   0.718061000000 AA    0.135825954929   2.369472785535   1.356938630731 Bohr   0.0
[INPUT] 10 C      0.105896000000   1.199977000000  -0.635089000000 AA    0.200114437687   2.267627885777  -1.200144274724 Bohr   0.0
[INPUT] 11 C     -0.033620000000  -0.137321000000   1.356817000000 AA   -0.063532592308  -0.259499081151   2.564012531154 Bohr   0.0
[INPUT] 12 C      0.049505000000   0.010165000000  -1.470629000000 AA    0.093550891797   0.019209066056  -2.779086040843 Bohr   0.0
[INPUT] 13 C     -0.109410000000  -1.273027000000   0.797785000000 AA   -0.206754935289  -2.405672379177   1.507595156286 Bohr   0.0
[INPUT] 14 C     -0.010507000000  -1.202730000000  -0.779497000000 AA   -0.019855352391  -2.272830301798  -1.473035844920 Bohr   0.0
[INPUT] 15 C     -0.139497000000  -2.571845000000   1.175903000000 AA   -0.263611125198  -4.860082684832   2.222134619054 Bohr   0.0
[INPUT] 16 C     -0.174941000000  -2.378318000000  -1.512281000000 AA   -0.330590577958  -4.494369657123  -2.857796913383 Bohr   0.0
[INPUT] 17 C     -0.064657000000  -3.579843000000   0.708009000000 AA   -0.122184022036  -6.764922838941   1.337943103727 Bohr   0.0
[INPUT] 18 C     -0.075541000000  -3.571574000000  -0.711239000000 AA   -0.142751801176  -6.749296693617  -1.344046919110 Bohr   0.0
[INPUT] 19 C     -0.173910000000  -4.911668000000   1.374120000000 AA   -0.328642270323  -9.281707334790   2.596710462287 Bohr   0.0
[INPUT] 20 C     -0.059860000000  -4.929159000000  -1.270144000000 AA   -0.113119005816  -9.314760534435  -2.400224298760 Bohr   0.0
[INPUT] 21 C     -0.028446000000  -6.215421000000   0.911039000000 AA   -0.053755149339 -11.745443438870   1.721614198798 Bohr   0.0
[INPUT] 22 C     -0.004319000000  -6.182041000000  -0.610213000000 AA   -0.008161727132 -11.682364380832  -1.153135447649 Bohr   0.0
[INPUT] 23 H     -0.052608000000   4.795486000000   2.433577000000 AA   -0.099414711961   9.062155174186   4.598794033041 Bohr   0.0
[INPUT] 24 H     -0.222013000000   2.489071000000   2.423846000000 AA   -0.419543766093   4.703662494597   4.580405108123 Bohr   0.0
[INPUT] 25 H     -0.017480000000   4.953915000000  -2.487249000000 AA   -0.033032412657   9.361542594375  -4.700219413598 Bohr   0.0
[INPUT] 26 H     -0.151042000000   2.549137000000  -2.331939000000 AA   -0.285428013307   4.817170783995  -4.406726049192 Bohr   0.0
[INPUT] 27 H     -0.078094000000   6.967070000000  -1.058474000000 AA   -0.147576271972  13.165854190674  -2.000225969973 Bohr   0.0
[INPUT] 28 H      0.089161000000   6.782618000000   1.217422000000 AA    0.168489870992  12.817290427545   2.300594158020 Bohr   0.0
[INPUT] 29 H      0.104279000000   0.098851000000   2.525490000000 AA    0.197058750544   0.186801317139   4.772484430328 Bohr   0.0
[INPUT] 30 H     -0.171568000000   0.097946000000  -2.454027000000 AA   -0.324216531739   0.185091114997  -4.637438932288 Bohr   0.0
[INPUT] 31 H      0.144257000000  -2.506099000000   2.551960000000 AA    0.272606221551  -4.735840751046   4.822505480845 Bohr   0.0
[INPUT] 32 H      0.066554000000  -2.685046000000  -2.537486000000 AA    0.125768832494  -5.074001571859  -4.795153584918 Bohr   0.0
[INPUT] 33 H      0.047716000000  -4.947014000000   2.384692000000 AA    0.090170171760  -9.348501594389   4.506414771441 Bohr   0.0
[INPUT] 34 H      0.050862000000  -5.191000000000  -2.600295000000 AA    0.096115250148  -9.809568312617  -4.913845393076 Bohr   0.0
[INPUT] 35 H      0.111146000000  -6.958325000000   1.141551000000 AA    0.210035499841 -13.149328535714   2.157218747223 Bohr   0.0
[INPUT] 36 H      0.057921000000  -6.880221000000  -1.206981000000 AA    0.109454826861 -13.001733366481  -2.280863527554 Bohr   0.0
[INPUT] ---------------- BASIS SET ---------------- 
[INPUT] l, kappa, [nprim/nctr], expnt,             c_1 c_2 ...
[INPUT] H
[INPUT] 0    0    [3    /1   ]  3.42525091        0.15432897
                                0.62391373        0.53532814
                                0.1688554         0.44463454
[INPUT] C
[INPUT] 0    0    [3    /1   ]  71.616837         0.15432897
                                13.045096         0.53532814
                                3.5305122         0.44463454
[INPUT] 0    0    [3    /1   ]  2.9412494         -0.09996723
                                0.6834831         0.39951283
                                0.2222899         0.70011547
[INPUT] 1    0    [3    /1   ]  2.9412494         0.15591627
                                0.6834831         0.60768372
                                0.2222899         0.39195739

nuclear repulsion = 1501.96716462385
number of shells = 80
number of NR pGTOs = 372
number of NR cGTOs = 124
basis = sto3g
ecp = {}
CPU time:     32459.57
atom C rad-grids = 99, ang-grids = [ 50  50  50  50  50  50  50  50  50  50  50  50  50  50  50  50  50  50
  50  50  50  50  50  50  50  50  50  50  50  50  50  86  86  86  86  86
  86  86  86  86  86  86  86 434 434 434 434 434 434 434 434 434 590 590
 590 590 590 590 590 590 590 590 590 590 590 590 590 590 590 590 590 590
 590 590 590 590 590 590 590 434 434 434 434 434 434 434 434 434 434 434
 434 434 434 434 434 434 434 434 434]
atom H rad-grids = 99, ang-grids = [ 50  50  50  50  50  50  50  50  50  50  50  50  50  50  50  50  50  50
  50  50  50  50  50  50  50  50  50  50  86  86  86  86  86  86  86 434
 434 434 434 434 434 434 434 590 590 590 590 590 590 590 590 590 590 590
 590 590 590 590 590 590 590 590 590 590 590 590 590 590 590 434 434 434
 434 434 434 434 434 434 434 434 434 434 434 434 434 434 434 434 434 434
 434 434 434 434 434 434 434 434 434]
tot_boxes 5270, boxes in each direction [ 8 29 15]
Padding 0 grids
tot grids = 1157832


******** <class 'pyscf.dft.rks.RKS'> ********
method = RKS
initial guess = minao
damping factor = 0
level_shift factor = 0
DIIS = <class 'pyscf.scf.diis.CDIIS'>
diis_start_cycle = 1
diis_space = 8
SCF conv_tol = 1e-10
SCF conv_tol_grad = None
SCF max_cycles = 50
direct_scf = True
direct_scf_tol = 1e-13
chkfile to save SCF result = /home/saade/mlelec/tutorials/tmp4wqzvc_2
max_memory 4000 MB (current use 637 MB)
XC library pyscf.dft.libxc version 6.1.0
    S. Lehtola, C. Steigemann, M. J.T. Oliveira, and M. A.L. Marques.,  SoftwareX 7, 1–5 (2018)
XC functionals = b3lypg
    P. J. Stephens, F. J. Devlin, C. F. Chabalowski, and M. J. Frisch.,  J. Phys. Chem. 98, 11623 (1994)
radial grids: 
    Treutler-Ahlrichs [JCP 102, 346 (1995); DOI:10.1063/1.469408] (M4) radial grids
    
becke partition: Becke, JCP 88, 2547 (1988); DOI:10.1063/1.454033
pruning grids: <function nwchem_prune at 0x7f9db5616ca0>
grids dens level: 3
symmetrized grids: False
atomic radii adjust function: <function treutler_atomic_radii_adjust at 0x7f9db5617380>
User specified grid scheme (99, 590)
small_rho_cutoff = 1e-07
Set gradient conv threshold to 1e-05
Initial guess from minao.
nelec by numeric integration = 145.2676567699225
    CPU time for vxc     36.89 sec, wall time     15.55 sec
E1 = -4103.270886088036  Ecoul = 1885.8784291604536  Exc = -126.25498696703721
init E= -841.680279270772
cond(S) = 28.248577016149685
    CPU time for initialize scf     46.99 sec, wall time     17.95 sec
  HOMO = -0.216953054755922  LUMO = -0.147745688240113
  mo_energy =
[-10.16105802 -10.15468351 -10.12883438 -10.12649164 -10.12245764
 -10.12234774 -10.11596562 -10.10746631 -10.10565681 -10.10460513
 -10.1012829  -10.09893308 -10.09875732 -10.09839091 -10.09672691
 -10.09664025 -10.09352278 -10.09134517 -10.09016142 -10.08962275
 -10.08877474 -10.06989751  -1.11116719  -1.07454347  -1.03495858
  -0.98831448  -0.95833546  -0.94918281  -0.92504487  -0.89554517
  -0.86704278  -0.85687653  -0.81501651  -0.78209858  -0.74005823
  -0.72593281  -0.70552199  -0.68371461  -0.67518356  -0.64813565
  -0.60959823  -0.60331401  -0.57532212  -0.56919906  -0.55014976
  -0.54386601  -0.52799854  -0.51750335  -0.49882976  -0.49326978
  -0.48908553  -0.48402436  -0.46318216  -0.45463722  -0.45306798
  -0.44320414  -0.41817239  -0.41345468  -0.40778061  -0.40519293
  -0.38370791  -0.37239728  -0.36512198  -0.35601531  -0.34510991
  -0.34082813  -0.31910837  -0.31081372  -0.30164543  -0.29532093
  -0.27168809  -0.25935216  -0.21695305  -0.14774569  -0.10587928
  -0.07259649  -0.04715807  -0.03674531  -0.01154629   0.01119164
   0.03034833   0.05301404   0.08514912   0.10594303   0.12754136
   0.13515798   0.13776879   0.18392981   0.20735844   0.21553835
   0.21716868   0.23992393   0.25504144   0.26785529   0.2772898
   0.29531967   0.30475936   0.31797617   0.33566028   0.34636777
   0.3887601    0.40142995   0.41357653   0.41766176   0.43051067
   0.43861383   0.44989059   0.48127451   0.49879028   0.50747929
   0.53355259   0.53553789   0.5384658    0.57574738   0.5840685
   0.61182432   0.62580356   0.63317991   0.69993027   0.71455292
   0.77953109   0.80851317   0.85770163   0.99449094]
nelec by numeric integration = 145.99999653291732
    CPU time for vxc     37.98 sec, wall time     15.73 sec
E1 = -4116.810360252167  Ecoul = 1904.1420732692645  Exc = -124.85422575923337
cycle= 1 E= -835.555348118288  delta_E= 6.12  |g|= 0.264  |ddm|= 9.31
    CPU time for cycle= 1     38.33 sec, wall time     15.79 sec
  HOMO = -0.102355220038448  LUMO = 0.00152018697184213
  mo_energy =
[-1.00383037e+01 -1.00307025e+01 -1.00284891e+01 -1.00251040e+01
 -1.00235376e+01 -1.00234343e+01 -1.00207145e+01 -1.00143270e+01
 -1.00100860e+01 -1.00092953e+01 -1.00083198e+01 -1.00053162e+01
 -1.00030868e+01 -9.98854459e+00 -9.98750295e+00 -9.98658161e+00
 -9.98460362e+00 -9.97702102e+00 -9.96839772e+00 -9.96410269e+00
 -9.94802127e+00 -9.92351794e+00 -8.46503872e-01 -8.33839670e-01
 -8.04804392e-01 -7.71250509e-01 -7.48086465e-01 -7.47173159e-01
 -7.33317726e-01 -7.05100608e-01 -6.97063189e-01 -6.82327301e-01
 -6.47141750e-01 -6.32466327e-01 -6.05796938e-01 -5.88043681e-01
 -5.75857558e-01 -5.51482526e-01 -5.40659527e-01 -5.19427334e-01
 -5.00850101e-01 -4.84620189e-01 -4.69655811e-01 -4.56813395e-01
 -4.45577445e-01 -4.32972733e-01 -4.22051855e-01 -4.12137544e-01
 -3.98821981e-01 -3.90483573e-01 -3.86252426e-01 -3.65656094e-01
 -3.62147475e-01 -3.55670786e-01 -3.50316976e-01 -3.47366089e-01
 -3.25424073e-01 -3.23325535e-01 -3.11701884e-01 -3.03506963e-01
 -2.91295838e-01 -2.67817820e-01 -2.58594824e-01 -2.53152456e-01
 -2.49530243e-01 -2.43477718e-01 -2.26866774e-01 -2.17588591e-01
 -2.05796484e-01 -1.91025257e-01 -1.72760502e-01 -1.55830921e-01
 -1.02355220e-01  1.52018697e-03  3.63059096e-02  6.51875057e-02
  9.89176415e-02  1.02695812e-01  1.35940929e-01  1.66285585e-01
  1.81224629e-01  2.00969938e-01  2.27909141e-01  2.41117057e-01
  2.50752735e-01  2.72141513e-01  2.85842042e-01  3.43419868e-01
  3.55797911e-01  3.65723363e-01  3.69167211e-01  3.87548764e-01
  3.96629767e-01  4.11895167e-01  4.28874552e-01  4.36624661e-01
  4.54519479e-01  4.67518530e-01  4.90071392e-01  5.01959354e-01
  5.32643203e-01  5.39691317e-01  5.46158964e-01  5.56148338e-01
  5.75770169e-01  5.84747037e-01  5.95958897e-01  6.10171453e-01
  6.46370895e-01  6.54960034e-01  6.58543797e-01  6.82405224e-01
  6.96772529e-01  7.27128489e-01  7.32665193e-01  7.39795875e-01
  7.61495582e-01  7.79425608e-01  8.43742748e-01  8.81041433e-01
  9.37362356e-01  9.68363274e-01  9.82626128e-01  1.18479723e+00]
nelec by numeric integration = 145.9999964932398
    CPU time for vxc     38.31 sec, wall time     15.84 sec
E1 = -4113.073796387398  Ecoul = 1900.2779104074027  Exc = -124.72762121199948
cycle= 2 E= -835.556342568147  delta_E= -0.000994  |g|= 0.275  |ddm|= 0.818
    CPU time for cycle= 2     38.91 sec, wall time     15.93 sec
  HOMO = -0.120216772321515  LUMO = -0.0156823057047851
  mo_energy =
[-10.04453472 -10.04043523 -10.0363293  -10.03584445 -10.02847204
 -10.02528609 -10.02223543 -10.01980659 -10.01784864 -10.01769235
 -10.01597767 -10.01462183 -10.01400275 -10.01344342 -10.01312029
 -10.00917734 -10.00719567 -10.00631002  -9.99988099  -9.99621133
  -9.99367937  -9.98987307  -0.8694883   -0.84198014  -0.81708984
  -0.78464593  -0.76541136  -0.75729699  -0.74103165  -0.72152012
  -0.70100157  -0.69329795  -0.66134697  -0.64151914  -0.61036381
  -0.59567089  -0.58434799  -0.56380065  -0.55384884  -0.53412567
  -0.5048626   -0.49832858  -0.4749392   -0.46919891  -0.45206697
  -0.44684073  -0.43212715  -0.42566292  -0.4057587   -0.40353598
  -0.39322367  -0.38254505  -0.37585762  -0.36571761  -0.3577913
  -0.3533855   -0.33066145  -0.32692287  -0.32063665  -0.3137013
  -0.29738433  -0.28046457  -0.2781994   -0.26528595  -0.26159987
  -0.24983094  -0.23051445  -0.22445817  -0.2168787   -0.20449122
  -0.17849211  -0.16612874  -0.12021677  -0.01568231   0.02759278
   0.05811142   0.08684207   0.0989587    0.12479624   0.1480983
   0.16745771   0.18921579   0.22285729   0.23699525   0.25226065
   0.267372     0.27722477   0.32851039   0.3508939    0.3526015
   0.35880249   0.38031068   0.3888222    0.41197387   0.41400313
   0.42503086   0.44393859   0.45986564   0.47434624   0.48723854
   0.52346329   0.5329979    0.54208151   0.55284239   0.56267167
   0.57257093   0.59218326   0.60993979   0.63587017   0.64209161
   0.65839437   0.67097792   0.67660796   0.71239622   0.71561818
   0.7332947    0.75130794   0.76643795   0.8325095    0.8392156
   0.91959887   0.9567932    0.97695643   1.1482376 ]
nelec by numeric integration = 145.99999650348016
    CPU time for vxc     37.91 sec, wall time     15.77 sec
E1 = -4114.4107097685455  Ecoul = 1901.6301014429573  Exc = -124.76376632890981
cycle= 3 E= -835.57721003065  delta_E= -0.0209  |g|= 0.126  |ddm|= 0.563
    CPU time for cycle= 3     38.29 sec, wall time     15.83 sec
  HOMO = -0.122653804993867  LUMO = -0.0184441290507319
  mo_energy =
[-10.05520111 -10.04601211 -10.04369925 -10.03308414 -10.0319927
 -10.02871272 -10.02822568 -10.02751073 -10.02691837 -10.02614634
 -10.02475568 -10.02344905 -10.020412   -10.01911164 -10.01720427
 -10.01598375 -10.00888542 -10.00727718 -10.00508922 -10.00495406
 -10.00228344 -10.00109407  -0.87552943  -0.84566475  -0.82074
  -0.78791963  -0.76806639  -0.76004622  -0.74630394  -0.72244399
  -0.70546755  -0.69517175  -0.66353906  -0.64661122  -0.61440633
  -0.59868659  -0.58599917  -0.56723259  -0.55527023  -0.53364324
  -0.50982354  -0.49993894  -0.4788034   -0.4717676   -0.45527323
  -0.4491552   -0.43795557  -0.42646343  -0.40581509  -0.40518963
  -0.39897105  -0.38803567  -0.37691376  -0.36890866  -0.36095033
  -0.35992414  -0.3343808   -0.33118941  -0.32512845  -0.31810415
  -0.30269073  -0.28358204  -0.27784814  -0.26832873  -0.26387343
  -0.25383933  -0.23464449  -0.23168105  -0.22130334  -0.20703489
  -0.18303393  -0.16994395  -0.1226538   -0.01844413   0.02304238
   0.05384404   0.08410866   0.09128767   0.12162602   0.14674564
   0.16313592   0.18503394   0.21809298   0.23200178   0.25104925
   0.26164934   0.27238614   0.32280623   0.345979     0.35010808
   0.35332107   0.37539546   0.38972706   0.40423861   0.4122208
   0.42416267   0.44067547   0.45705064   0.4749658    0.48327076
   0.52248601   0.53090019   0.54088009   0.54787917   0.5591874
   0.57146635   0.58327728   0.60435005   0.6306357    0.64029038
   0.6556185    0.66721382   0.67512934   0.71039704   0.71544954
   0.73219107   0.74763395   0.76308995   0.83092441   0.84930284
   0.91216129   0.94695286   0.97179832   1.13955833]
nelec by numeric integration = 145.99999650703091
    CPU time for vxc     38.02 sec, wall time     15.77 sec
E1 = -4114.668391297617  Ecoul = 1901.8922847115502  Exc = -124.77314523129493
cycle= 4 E= -835.582087193514  delta_E= -0.00488  |g|= 0.0507  |ddm|= 0.265
    CPU time for cycle= 4     38.51 sec, wall time     15.85 sec
  HOMO = -0.12248904482357  LUMO = -0.0181021874220876
  mo_energy =
[-10.04808072 -10.03961643 -10.03536263 -10.034546   -10.03170497
 -10.03083678 -10.0261693  -10.02584084 -10.02433737 -10.0238937
 -10.02365144 -10.02270576 -10.0200893  -10.01862323 -10.01790826
 -10.01775721 -10.0160652  -10.0132032  -10.01041772 -10.00820611
 -10.00384675  -9.99576113  -0.8708404   -0.84660656  -0.82083573
  -0.7866458   -0.76672454  -0.76111931  -0.74602016  -0.72302955
  -0.7056574   -0.69533004  -0.66259845  -0.64511202  -0.61448524
  -0.59838955  -0.58641577  -0.56588758  -0.55518635  -0.53426228
  -0.50891073  -0.49925832  -0.47829127  -0.47152858  -0.45450972
  -0.44878107  -0.43581293  -0.42714725  -0.40705889  -0.40663107
  -0.39840493  -0.38472403  -0.37729702  -0.36881762  -0.36202244
  -0.36048187  -0.33546109  -0.32950087  -0.3252553   -0.31780623
  -0.30181766  -0.28242556  -0.27957099  -0.26778681  -0.26412254
  -0.25466546  -0.23525408  -0.23030453  -0.21897012  -0.20747653
  -0.18395286  -0.17041878  -0.12248904  -0.01810219   0.02277121
   0.05339805   0.08428161   0.09203326   0.12094658   0.14633564
   0.16517561   0.18712294   0.21825188   0.23265097   0.2516188
   0.26367212   0.27147721   0.32582974   0.34726965   0.34929151
   0.35386933   0.37608465   0.38666194   0.40460307   0.413173
   0.42327529   0.44136851   0.45671597   0.47298246   0.48449052
   0.52161374   0.52984369   0.53963699   0.54843863   0.5607077
   0.56968468   0.58348737   0.60457276   0.63325015   0.64001733
   0.65448815   0.66653557   0.67520357   0.71134838   0.71397521
   0.73045547   0.74960806   0.76287697   0.82928921   0.84609326
   0.91618451   0.94890448   0.97397259   1.14756015]
nelec by numeric integration = 145.99999650987579
    CPU time for vxc     37.83 sec, wall time     15.74 sec
E1 = -4114.616368348332  Ecoul = 1901.8361860400603  Exc = -124.76993947064472
cycle= 5 E= -835.582957155068  delta_E= -0.00087  |g|= 0.0194  |ddm|= 0.11
    CPU time for cycle= 5     38.29 sec, wall time     15.81 sec
  HOMO = -0.121917444849444  LUMO = -0.0173862121641888
  mo_energy =
[-10.04913718 -10.04198105 -10.03442247 -10.03323758 -10.03242925
 -10.02925234 -10.02524375 -10.02483199 -10.02444961 -10.02389772
 -10.02143573 -10.02070558 -10.01986225 -10.01858688 -10.01745575
 -10.01633709 -10.01490324 -10.00817787 -10.00813359 -10.00666254
 -10.00231545  -9.99725226  -0.87165138  -0.84532267  -0.81984135
  -0.78652582  -0.76658969  -0.75982829  -0.74537649  -0.72227568
  -0.70487504  -0.69480289  -0.66232428  -0.64495937  -0.61363312
  -0.59781182  -0.58570348  -0.56580409  -0.55468839  -0.53362709
  -0.50833119  -0.49907772  -0.47771766  -0.47101471  -0.45427701
  -0.44831046  -0.43583247  -0.42646284  -0.40629152  -0.40555919
  -0.39791415  -0.38520917  -0.37651327  -0.36809951  -0.36103545
  -0.35937791  -0.33446043  -0.32999448  -0.32458821  -0.31712225
  -0.30143909  -0.28242609  -0.27860796  -0.26748715  -0.26341864
  -0.25392693  -0.23451022  -0.23015758  -0.21983765  -0.20682471
  -0.18306774  -0.16972171  -0.12191744  -0.01738621   0.02367852
   0.05409119   0.0846685    0.09258795   0.12180284   0.14711372
   0.16476062   0.18677563   0.21895511   0.23321863   0.25142689
   0.26364026   0.27268368   0.32559438   0.34766973   0.35038768
   0.35397352   0.37663773   0.38798056   0.40570636   0.41336543
   0.4241955    0.44162315   0.45752911   0.47399975   0.48459666
   0.52269582   0.53091187   0.54026966   0.54894053   0.56060937
   0.57098479   0.58478284   0.60558788   0.63273394   0.64069182
   0.65526957   0.66758925   0.67572608   0.71177628   0.71494945
   0.73143768   0.74944216   0.76367824   0.83066228   0.84678691
   0.91563186   0.95023248   0.97397778   1.14592638]
nelec by numeric integration = 145.99999650565755
    CPU time for vxc     37.97 sec, wall time     15.79 sec
E1 = -4114.575526183414  Ecoul = 1901.7939736041897  Exc = -124.76869488337438
cycle= 6 E= -835.58308283875  delta_E= -0.000126  |g|= 0.00657  |ddm|= 0.0388
    CPU time for cycle= 6     38.59 sec, wall time     15.88 sec
  HOMO = -0.121824583249651  LUMO = -0.0172418942851105
  mo_energy =
[-10.04853121 -10.04151269 -10.03446061 -10.03292253 -10.03232481
 -10.02888943 -10.02519742 -10.0247112  -10.02403775 -10.02339419
 -10.02117666 -10.02039706 -10.01928924 -10.01836754 -10.0170596
 -10.015961   -10.01365528 -10.00903833 -10.00760321 -10.00704359
 -10.00265635  -9.9964746   -0.8713538   -0.84510374  -0.81970356
  -0.78621833  -0.76630946  -0.75981002  -0.7452325   -0.72208355
  -0.70467725  -0.69457557  -0.66215777  -0.64472597  -0.61350268
  -0.59766442  -0.58554405  -0.5655669   -0.55460328  -0.53351898
  -0.50820022  -0.49892186  -0.47763943  -0.47077677  -0.45409114
  -0.44818458  -0.43561975  -0.42626143  -0.40597743  -0.40560148
  -0.39770065  -0.38498684  -0.37656599  -0.36799273  -0.3608187
  -0.35922323  -0.33424834  -0.32970355  -0.32442715  -0.31699764
  -0.30136751  -0.28226539  -0.27846042  -0.26736607  -0.26344475
  -0.25367485  -0.2344167   -0.22989938  -0.21960496  -0.20662589
  -0.18282517  -0.1694924   -0.12182458  -0.01724189   0.0238845
   0.05436549   0.08494828   0.09283658   0.1220758    0.14718524
   0.16499136   0.18693174   0.21903049   0.23309277   0.25126306
   0.26363184   0.27285765   0.3257866    0.3480038    0.35049424
   0.35439447   0.3767761    0.38836141   0.40574203   0.4135593
   0.42417402   0.44188583   0.4577858    0.47433295   0.48488589
   0.5227181    0.53106461   0.54057711   0.54910954   0.56091548
   0.57110344   0.58478956   0.6055661    0.63312107   0.64087636
   0.65557119   0.66773492   0.67588377   0.71206296   0.71497318
   0.73175255   0.74962906   0.7638462    0.83091044   0.84709475
   0.91579248   0.95014365   0.97415348   1.1462664 ]
nelec by numeric integration = 145.99999650660757
    CPU time for vxc     38.48 sec, wall time     15.89 sec
E1 = -4114.560957876065  Ecoul = 1901.7790407004543  Exc = -124.76834475526269
cycle= 7 E= -835.583097307026  delta_E= -1.45e-05  |g|= 0.00139  |ddm|= 0.0109
    CPU time for cycle= 7     39.05 sec, wall time     15.98 sec
  HOMO = -0.121829037188952  LUMO = -0.0172262215957934
  mo_energy =
[-10.04874009 -10.04117091 -10.03447389 -10.03290388 -10.03234931
 -10.02886817 -10.02502249 -10.0246155  -10.02402401 -10.02337329
 -10.02108545 -10.02070448 -10.01930183 -10.01858318 -10.01690348
 -10.01598919 -10.01390862 -10.0089988  -10.00749637 -10.00695228
 -10.00266961  -9.99660118  -0.87135067  -0.84512844  -0.81968805
  -0.78621697  -0.76633657  -0.75978454  -0.74520683  -0.72208726
  -0.70467331  -0.69458938  -0.66217251  -0.64474061  -0.61350969
  -0.59766476  -0.58556052  -0.56557012  -0.55459074  -0.53351274
  -0.50821191  -0.4989245   -0.47762563  -0.47079274  -0.45411525
  -0.44818237  -0.43561652  -0.42628546  -0.40600745  -0.40557155
  -0.39768173  -0.38496807  -0.37655161  -0.36799429  -0.36083116
  -0.3592236   -0.3342764   -0.32973625  -0.32443694  -0.31698817
  -0.30133629  -0.28223911  -0.27843985  -0.26734949  -0.2634121
  -0.25370527  -0.23441327  -0.22989026  -0.21953961  -0.20663582
  -0.18282452  -0.16950835  -0.12182904  -0.01722622   0.02388123
   0.05436889   0.08493687   0.0928394    0.1220406    0.14722126
   0.16504137   0.18696932   0.21904839   0.23314003   0.25130422
   0.26371407   0.27283814   0.32580326   0.34799271   0.35050853
   0.35434774   0.37677627   0.38829561   0.40576476   0.41358904
   0.4241849    0.44187234   0.45777974   0.47432371   0.48487581
   0.52272725   0.53104636   0.54054653   0.54911032   0.56089061
   0.57110083   0.58481224   0.60559202   0.63310047   0.64089282
   0.65553711   0.66774759   0.67590451   0.71205101   0.71500569
   0.73167779   0.74959565   0.76384196   0.83087175   0.84708239
   0.91590131   0.95012148   0.97414017   1.14621799]
nelec by numeric integration = 145.99999650669352
    CPU time for vxc     37.87 sec, wall time     15.72 sec
E1 = -4114.562799817112  Ecoul = 1901.7809526645353  Exc = -124.76841541325824
cycle= 8 E= -835.583097941987  delta_E= -6.35e-07  |g|= 0.00038  |ddm|= 0.0023
    CPU time for cycle= 8     38.34 sec, wall time     15.79 sec
  HOMO = -0.121841822069017  LUMO = -0.0172296138090712
  mo_energy =
[-10.04872231 -10.04124963 -10.03444031 -10.0329539  -10.03237298
 -10.02888102 -10.02508868 -10.02465406 -10.02402269 -10.02339455
 -10.02109115 -10.02066381 -10.019256   -10.01857412 -10.01699428
 -10.01604866 -10.01386622 -10.0090054  -10.00755367 -10.00699332
 -10.00265746  -9.99658207  -0.87135598  -0.84513881  -0.81970992
  -0.78623277  -0.76634483  -0.75979653  -0.74521631  -0.72209927
  -0.70469085  -0.69459802  -0.66217507  -0.64475555  -0.61352726
  -0.5976796   -0.58557351  -0.56558203  -0.5545986   -0.53352212
  -0.50822677  -0.49893112  -0.47763537  -0.47080861  -0.45411863
  -0.44819125  -0.435621    -0.4263043   -0.40601972  -0.40558424
  -0.39770156  -0.38497354  -0.37655471  -0.3680046   -0.36084235
  -0.35923689  -0.33427695  -0.32972488  -0.32444242  -0.31700092
  -0.3013365   -0.28224488  -0.27845765  -0.26735479  -0.26342205
  -0.25370272  -0.23440505  -0.22990362  -0.21952739  -0.20664464
  -0.18284265  -0.16952102  -0.12184182  -0.01722961   0.02387245
   0.05434973   0.08492677   0.09282844   0.12203965   0.14720787
   0.16504574   0.18697724   0.21904442   0.23316123   0.25133353
   0.26371635   0.27283119   0.32579673   0.34798936   0.3504959
   0.35434782   0.37677013   0.3882816    0.40575878   0.4135721
   0.42417176   0.4418679    0.45775697   0.47429349   0.48486473
   0.52271098   0.53103674   0.54053009   0.54910487   0.56088578
   0.571087     0.58481064   0.60557645   0.63309526   0.6408776
   0.65550018   0.66772805   0.67588811   0.7120362    0.71498176
   0.73166797   0.74959403   0.76382576   0.83086424   0.84705237
   0.91587624   0.95011991   0.97411381   1.14623399]
nelec by numeric integration = 145.99999650664378
    CPU time for vxc     37.84 sec, wall time     15.77 sec
E1 = -4114.564046593307  Ecoul = 1901.7822424667308  Exc = -124.76845848624187
cycle= 9 E= -835.583097988969  delta_E= -4.7e-08  |g|= 0.000145  |ddm|= 0.000725
    CPU time for cycle= 9     38.22 sec, wall time     15.84 sec
  HOMO = -0.121844049245482  LUMO = -0.0172296692941829
  mo_energy =
[-10.04870586 -10.04127413 -10.03444107 -10.03294869 -10.03237522
 -10.02890459 -10.02507957 -10.02464553 -10.02404264 -10.02338957
 -10.02112954 -10.02067173 -10.01926387 -10.0185768  -10.01696302
 -10.01601393 -10.01389612 -10.00900279 -10.00756372 -10.0069906
 -10.00265265  -9.99657211  -0.87135541  -0.84514216  -0.81970827
  -0.78623321  -0.76634321  -0.75980256  -0.74522289  -0.72210047
  -0.70469157  -0.69459862  -0.66217279  -0.64475593  -0.61352925
  -0.59767898  -0.5855765   -0.56558553  -0.55459832  -0.53352516
  -0.50822862  -0.49892908  -0.47763934  -0.47080712  -0.45411845
  -0.44819407  -0.43562549  -0.42630107  -0.40601982  -0.40558814
  -0.39770203  -0.38497502  -0.37655324  -0.36800341  -0.36084614
  -0.35924408  -0.33428415  -0.32972171  -0.32444219  -0.31700078
  -0.30134144  -0.28224527  -0.2784589   -0.26735394  -0.26342013
  -0.25370829  -0.23440914  -0.22990659  -0.2195319   -0.2066459
  -0.18284304  -0.16952562  -0.12184405  -0.01722967   0.02386929
   0.05434973   0.08492664   0.09282585   0.12203335   0.14720912
   0.16504217   0.18697641   0.21904346   0.23315733   0.25133874
   0.2637092    0.2728256    0.32579385   0.34798378   0.35048811
   0.35434368   0.37676979   0.38828007   0.40574872   0.41357301
   0.42417481   0.44186967   0.45775936   0.4742948    0.48486465
   0.52271059   0.53103276   0.5405306    0.54909995   0.56088639
   0.57108484   0.58480045   0.60557202   0.63309556   0.64087293
   0.65550991   0.66772985   0.67588925   0.71203802   0.71498183
   0.73166178   0.74959904   0.76382745   0.83085682   0.84704802
   0.91586577   0.95012683   0.9741177    1.14623688]
nelec by numeric integration = 145.99999650662124
    CPU time for vxc     38.27 sec, wall time     15.87 sec
E1 = -4114.564274311473  Ecoul = 1901.7824683744113  Exc = -124.76845668285483
cycle= 10 E= -835.583097996069  delta_E= -7.1e-09  |g|= 5.94e-05  |ddm|= 0.000286
    CPU time for cycle= 10     38.76 sec, wall time     15.95 sec
  HOMO = -0.121843678883448  LUMO = -0.0172278358107281
  mo_energy =
[-10.04871056 -10.04125995 -10.03444585 -10.03294046 -10.03236666
 -10.02889752 -10.02507482 -10.02464325 -10.02403259 -10.02339237
 -10.021112   -10.02067314 -10.01927079 -10.01857608 -10.01697535
 -10.01602622 -10.01388672 -10.00900381 -10.00755962 -10.00699053
 -10.00265448  -9.99657793  -0.87135576  -0.84514127  -0.81970712
  -0.78623185  -0.76634275  -0.75979877  -0.74522003  -0.72209881
  -0.70468993  -0.69459764  -0.66217269  -0.64475491  -0.61352661
  -0.59767818  -0.5855738   -0.56558358  -0.55459777  -0.53352394
  -0.50822693  -0.49892893  -0.47763699  -0.47080645  -0.45411766
  -0.44819156  -0.43562391  -0.42630126  -0.4060201   -0.40558469
  -0.39770023  -0.38497441  -0.37655358  -0.36800309  -0.36084469
  -0.35923968  -0.33428202  -0.32972329  -0.32444199  -0.31700026
  -0.30133983  -0.28224465  -0.2784569   -0.26735316  -0.26341957
  -0.25370743  -0.23441085  -0.22990504  -0.21953476  -0.20664481
  -0.18284122  -0.16952376  -0.12184368  -0.01722784   0.02387121
   0.05435137   0.08492799   0.09282713   0.12203582   0.1472093
   0.16504063   0.18697433   0.21904297   0.233154     0.25133585
   0.26371087   0.27282777   0.32579558   0.34798547   0.35049331
   0.35434452   0.3767706    0.38828137   0.40575389   0.4135746
   0.42417519   0.44186946   0.45775927   0.47429674   0.48486577
   0.52271214   0.53103402   0.54053159   0.54910218   0.5608867
   0.57108761   0.58480401   0.6055749    0.63309598   0.64087628
   0.65550809   0.66773108   0.67589049   0.71203853   0.7149851
   0.73166485   0.74959855   0.76382911   0.83085933   0.84705304
   0.91587197   0.95012087   0.97411952   1.14623386]
nelec by numeric integration = 145.9999965066268
    CPU time for vxc     37.86 sec, wall time     15.73 sec
E1 = -4114.564006873869  Ecoul = 1901.78219945883  Exc = -124.76845520615956
cycle= 11 E= -835.583097997351  delta_E= -1.28e-09  |g|= 2.06e-05  |ddm|= 0.000116
    CPU time for cycle= 11     38.15 sec, wall time     15.78 sec
  HOMO = -0.121843823657573  LUMO = -0.0172273984202413
  mo_energy =
[-10.04871134 -10.04126033 -10.03444601 -10.0329455  -10.03237177
 -10.02889305 -10.02507873 -10.02464515 -10.02403479 -10.0233922
 -10.02111357 -10.02067011 -10.01926485 -10.01857477 -10.01697101
 -10.01602343 -10.01388652 -10.00900295 -10.00755707 -10.00698836
 -10.00265437  -9.99657681  -0.87135625  -0.84513979  -0.81970703
  -0.78623173  -0.76634264  -0.75979901  -0.74521979  -0.72209873
  -0.70468981  -0.69459715  -0.6621726   -0.64475486  -0.61352657
  -0.59767798  -0.58557382  -0.5655835   -0.55459779  -0.53352324
  -0.50822646  -0.49892914  -0.47763703  -0.4708063   -0.45411786
  -0.44819196  -0.43562366  -0.42630034  -0.40601878  -0.40558499
  -0.39770046  -0.38497485  -0.37655365  -0.3680027   -0.36084367
  -0.35923985  -0.33428126  -0.32972343  -0.32444171  -0.31699995
  -0.30134047  -0.28224492  -0.27845705  -0.26735377  -0.26342017
  -0.25370647  -0.23440917  -0.22990494  -0.2195347   -0.20664466
  -0.18284122  -0.16952325  -0.12184382  -0.0172274    0.02387175
   0.05435121   0.08492796   0.09282789   0.12203623   0.14720913
   0.16504092   0.18697422   0.21904356   0.23315537   0.25133477
   0.26371008   0.27282862   0.32579481   0.34798561   0.35049229
   0.35434509   0.37677035   0.38828243   0.40575301   0.41357395
   0.42417474   0.44186936   0.45775991   0.47429706   0.48486546
   0.52271262   0.53103538   0.54053235   0.54910225   0.56088667
   0.57108764   0.58480474   0.60557508   0.63309579   0.64087605
   0.65550962   0.66773082   0.67589009   0.71203878   0.71498448
   0.73166602   0.74959824   0.76382847   0.83086089   0.84705357
   0.91587083   0.95012425   0.97411874   1.14623361]
nelec by numeric integration = 145.99999650662866
    CPU time for vxc     38.15 sec, wall time     15.77 sec
E1 = -4114.564025078396  Ecoul = 1901.7822168729244  Exc = -124.76845441586812
cycle= 12 E= -835.583097997492  delta_E= -1.41e-10  |g|= 1.05e-05  |ddm|= 4.34e-05
    CPU time for cycle= 12     38.61 sec, wall time     15.84 sec
  HOMO = -0.12184405074928  LUMO = -0.0172273551428176
  mo_energy =
[-10.04871132 -10.04126101 -10.03444586 -10.03294441 -10.03236978
 -10.02889517 -10.02507795 -10.02464488 -10.02403359 -10.02339124
 -10.0211122  -10.02067068 -10.01926627 -10.01857564 -10.01697088
 -10.01602332 -10.01388678 -10.00900308 -10.00755894 -10.00699025
 -10.00265408  -9.99657652  -0.8713561   -0.84514013  -0.81970701
  -0.78623184  -0.76634275  -0.75979898  -0.74521979  -0.72209889
  -0.70468975  -0.6945973   -0.66217266  -0.64475493  -0.61352654
  -0.59767803  -0.5855739   -0.56558355  -0.55459787  -0.53352363
  -0.5082265   -0.49892919  -0.47763696  -0.47080636  -0.45411785
  -0.44819193  -0.43562367  -0.42630066  -0.40601902  -0.40558509
  -0.3977003   -0.38497471  -0.3765537   -0.36800284  -0.36084394
  -0.35923965  -0.33428141  -0.32972345  -0.32444171  -0.31699996
  -0.30134003  -0.28224489  -0.27845717  -0.26735369  -0.26342007
  -0.2537066   -0.23440945  -0.22990488  -0.21953427  -0.20664477
  -0.18284119  -0.16952337  -0.12184405  -0.01722736   0.02387176
   0.05435124   0.08492785   0.09282791   0.12203617   0.14720913
   0.16504119   0.18697448   0.21904352   0.23315533   0.25133483
   0.26371058   0.2728284    0.32579498   0.34798561   0.35049255
   0.35434495   0.37677043   0.38828208   0.40575349   0.41357403
   0.42417466   0.44186943   0.45775981   0.47429695   0.48486546
   0.52271236   0.53103493   0.54053219   0.54910231   0.56088658
   0.5710875    0.58480463   0.60557518   0.63309582   0.64087605
   0.65550946   0.66773101   0.67588999   0.71203877   0.71498436
   0.73166563   0.74959838   0.76382866   0.8308604    0.84705268
   0.91587109   0.95012368   0.97411881   1.14623375]
nelec by numeric integration = 145.999996506626
    CPU time for vxc     38.22 sec, wall time     15.90 sec
E1 = -4114.564041297326  Ecoul = 1901.782233883085  Exc = -124.76845520713164
cycle= 13 E= -835.583097997525  delta_E= -3.27e-11  |g|= 5.01e-06  |ddm|= 2.29e-05
    CPU time for cycle= 13     38.79 sec, wall time     15.98 sec
  HOMO = -0.121843954500479  LUMO = -0.0172272843631924
  mo_energy =
[-10.04871134 -10.04126096 -10.0344459  -10.03294345 -10.03237022
 -10.02889478 -10.02507678 -10.02464497 -10.02403566 -10.02339234
 -10.0211149  -10.02067079 -10.0192668  -10.01857586 -10.01697258
 -10.01602429 -10.01388606 -10.00900234 -10.00755682 -10.00698741
 -10.00265468  -9.99657758  -0.87135617  -0.84514025  -0.81970702
  -0.78623193  -0.76634274  -0.75979891  -0.74522002  -0.72209865
  -0.70469     -0.69459734  -0.66217261  -0.64475515  -0.61352675
  -0.59767815  -0.5855739   -0.56558371  -0.5545977   -0.53352337
  -0.50822688  -0.49892909  -0.47763716  -0.47080638  -0.45411796
  -0.44819188  -0.43562395  -0.42630061  -0.40601916  -0.40558474
  -0.39770054  -0.38497478  -0.37655347  -0.36800285  -0.36084397
  -0.35924006  -0.33428151  -0.32972358  -0.32444185  -0.31700004
  -0.30134029  -0.28224488  -0.27845675  -0.26735365  -0.26341987
  -0.25370675  -0.23440951  -0.22990532  -0.21953436  -0.20664469
  -0.18284127  -0.16952357  -0.12184395  -0.01722728   0.02387151
   0.0543512    0.08492794   0.0928274    0.12203603   0.14720947
   0.16504107   0.18697439   0.21904344   0.23315526   0.25133505
   0.26371029   0.27282832   0.32579485   0.34798544   0.35049257
   0.35434473   0.37677022   0.38828216   0.40575295   0.41357419
   0.42417494   0.44186942   0.45775965   0.47429705   0.4848654
   0.52271249   0.53103495   0.54053204   0.54910209   0.56088651
   0.57108775   0.58480431   0.60557482   0.6330956    0.64087609
   0.65550893   0.66773096   0.67589034   0.71203863   0.71498486
   0.73166546   0.74959816   0.7638287    0.83086038   0.84705377
   0.91587078   0.95012318   0.97411854   1.14623364]
nelec by numeric integration = 145.99999650662593
    CPU time for vxc     38.52 sec, wall time     15.90 sec
E1 = -4114.564033789641  Ecoul = 1901.7822267382912  Exc = -124.76845556998435
Extra cycle  E= -835.583097997486  delta_E= 3.87e-11  |g|= 1.15e-05  |ddm|= 2.62e-05
    CPU time for scf_cycle    586.74 sec, wall time    240.16 sec
    CPU time for SCF    586.74 sec, wall time    240.16 sec
converged SCF energy = -835.583097997486
nelec by numeric integration = 145.99999650662593
    CPU time for vxc     37.82 sec, wall time     15.71 sec
 ** Mulliken pop  **
pop of  0 C 1s            1.99071
pop of  0 C 2s            1.13506
pop of  0 C 2px           0.97152
pop of  0 C 2py           0.95452
pop of  0 C 2pz           0.94069
pop of  1 C 1s            1.99102
pop of  1 C 2s            1.16302
pop of  1 C 2px           0.95539
pop of  1 C 2py           0.94487
pop of  1 C 2pz           0.91984
pop of  2 C 1s            1.99142
pop of  2 C 2s            1.10460
pop of  2 C 2px           0.96816
pop of  2 C 2py           0.99451
pop of  2 C 2pz           0.96832
pop of  3 C 1s            1.99078
pop of  3 C 2s            1.16138
pop of  3 C 2px           1.01690
pop of  3 C 2py           0.93278
pop of  3 C 2pz           0.99530
pop of  4 C 1s            1.99081
pop of  4 C 2s            1.15735
pop of  4 C 2px           1.03175
pop of  4 C 2py           0.93755
pop of  4 C 2pz           1.01527
pop of  5 C 1s            1.99079
pop of  5 C 2s            1.11128
pop of  5 C 2px           1.01660
pop of  5 C 2py           0.97951
pop of  5 C 2pz           1.05372
pop of  6 C 1s            1.99078
pop of  6 C 2s            1.14677
pop of  6 C 2px           0.95640
pop of  6 C 2py           1.01766
pop of  6 C 2pz           0.96202
pop of  7 C 1s            1.99063
pop of  7 C 2s            1.08377
pop of  7 C 2px           1.00962
pop of  7 C 2py           1.05606
pop of  7 C 2pz           0.99676
pop of  8 C 1s            1.99074
pop of  8 C 2s            1.14607
pop of  8 C 2px           0.99745
pop of  8 C 2py           0.92397
pop of  8 C 2pz           0.93984
pop of  9 C 1s            1.99057
pop of  9 C 2s            1.11852
pop of  9 C 2px           0.98074
pop of  9 C 2py           0.94596
pop of  9 C 2pz           0.95290
pop of  10 C 1s           1.99117
pop of  10 C 2s           1.14914
pop of  10 C 2px          0.97926
pop of  10 C 2py          0.94840
pop of  10 C 2pz          0.97800
pop of  11 C 1s           1.99078
pop of  11 C 2s           1.15301
pop of  11 C 2px          1.00866
pop of  11 C 2py          0.94109
pop of  11 C 2pz          0.99642
pop of  12 C 1s           1.99064
pop of  12 C 2s           1.07316
pop of  12 C 2px          1.03462
pop of  12 C 2py          0.98342
pop of  12 C 2pz          0.93124
pop of  13 C 1s           1.99087
pop of  13 C 2s           1.15774
pop of  13 C 2px          0.96388
pop of  13 C 2py          0.95103
pop of  13 C 2pz          0.92881
pop of  14 C 1s           1.99185
pop of  14 C 2s           1.03958
pop of  14 C 2px          0.99341
pop of  14 C 2py          1.01624
pop of  14 C 2pz          0.98524
pop of  15 C 1s           1.99086
pop of  15 C 2s           1.17381
pop of  15 C 2px          1.00297
pop of  15 C 2py          0.93757
pop of  15 C 2pz          0.98231
pop of  16 C 1s           1.99082
pop of  16 C 2s           1.03519
pop of  16 C 2px          1.02130
pop of  16 C 2py          1.01495
pop of  16 C 2pz          0.98719
pop of  17 C 1s           1.99076
pop of  17 C 2s           1.14680
pop of  17 C 2px          0.97907
pop of  17 C 2py          0.94196
pop of  17 C 2pz          0.92587
pop of  18 C 1s           1.99078
pop of  18 C 2s           1.16023
pop of  18 C 2px          0.98150
pop of  18 C 2py          0.91603
pop of  18 C 2pz          0.99743
pop of  19 C 1s           1.99159
pop of  19 C 2s           1.22188
pop of  19 C 2px          0.96841
pop of  19 C 2py          0.92526
pop of  19 C 2pz          0.92143
pop of  20 C 1s           1.99146
pop of  20 C 2s           1.09730
pop of  20 C 2px          1.02007
pop of  20 C 2py          1.06814
pop of  20 C 2pz          0.98474
pop of  21 C 1s           1.99101
pop of  21 C 2s           1.15726
pop of  21 C 2px          1.00870
pop of  21 C 2py          0.99480
pop of  21 C 2pz          0.96500
pop of  22 H 1s           0.97591
pop of  23 H 1s           0.89628
pop of  24 H 1s           0.88932
pop of  25 H 1s           0.87675
pop of  26 H 1s           0.90006
pop of  27 H 1s           0.88437
pop of  28 H 1s           0.93397
pop of  29 H 1s           0.89957
pop of  30 H 1s           0.97361
pop of  31 H 1s           0.90427
pop of  32 H 1s           0.91198
pop of  33 H 1s           0.97677
pop of  34 H 1s           0.86776
pop of  35 H 1s           0.89457
 ** Mulliken atomic charges  **
charge of    0C =      0.00750
charge of    1C =      0.02586
charge of    2C =     -0.02701
charge of    3C =     -0.09713
charge of    4C =     -0.13273
charge of    5C =     -0.15192
charge of    6C =     -0.07362
charge of    7C =     -0.13684
charge of    8C =      0.00193
charge of    9C =      0.01130
charge of   10C =     -0.04598
charge of   11C =     -0.08996
charge of   12C =     -0.01309
charge of   13C =      0.00766
charge of   14C =     -0.02631
charge of   15C =     -0.08752
charge of   16C =     -0.04944
charge of   17C =      0.01554
charge of   18C =     -0.04597
charge of   19C =     -0.02857
charge of   20C =     -0.16171
charge of   21C =     -0.11678
charge of   22H =      0.02409
charge of   23H =      0.10372
charge of   24H =      0.11068
charge of   25H =      0.12325
charge of   26H =      0.09994
charge of   27H =      0.11563
charge of   28H =      0.06603
charge of   29H =      0.10043
charge of   30H =      0.02639
charge of   31H =      0.09573
charge of   32H =      0.08802
charge of   33H =      0.02323
charge of   34H =      0.13224
charge of   35H =      0.10543
Dipole moment(X, Y, Z, Debye):  0.07410,  0.87699, -0.24459
nelec by numeric integration = 145.99999650662593
    CPU time for vxc     38.47 sec, wall time     15.96 sec
E1 = -4114.564033789641  Ecoul = 1901.7822267382908  Exc = -124.76845556998435
nelec by numeric integration = 145.99999650662593
    CPU time for vxc     37.55 sec, wall time     15.82 sec
E1 = -4114.564033789641  Ecoul = 1901.7822267382912  Exc = -124.76845556998435
