System: uname_result(system='Linux', node='cosmopc18', release='5.15.0-97-generic', version='#107-Ubuntu SMP Wed Feb 7 13:26:48 UTC 2024', machine='x86_64')  Threads 4
Python 3.11.8 (main, Feb 26 2024, 21:39:34) [GCC 11.2.0]
numpy 1.26.4  scipy 1.11.4
Date: Tue Apr  9 13:33:53 2024
PySCF version 2.3.0
PySCF path  /home/saade/miniconda3/envs/tutorial/lib/python3.11/site-packages/pyscf

[ENV] PYSCFAD_BACKEND torch
[CONFIG] conf_file None
[INPUT] verbose = 5
[INPUT] max_memory = 4000 
[INPUT] num. atoms = 36
[INPUT] num. electrons = 146
[INPUT] charge = 0
[INPUT] spin (= nelec alpha-beta = 2S) = 0
[INPUT] symmetry False subgroup None
[INPUT] Mole.unit = angstrom
[INPUT] Symbol           X                Y                Z      unit          X                Y                Z       unit  Magmom
[INPUT]  1 C      0.099463000000   3.504331000000   0.567340000000 AA    0.187957829528   6.622225839823   1.072117219511 Bohr   0.0
[INPUT]  2 C      0.036374000000   3.561873000000  -0.658640000000 AA    0.068736898055   6.730964460483  -1.244649214684 Bohr   0.0
[INPUT]  3 C     -0.053733000000   4.939376000000   1.412246000000 AA   -0.101540653851   9.334067866250   2.668758160513 Bohr   0.0
[INPUT]  4 C     -0.058769000000   2.470528000000   1.415520000000 AA   -0.111057314615   4.668621303069   2.674945123844 Bohr   0.0
[INPUT]  5 C     -0.068877000000   4.981862000000  -1.465261000000 AA   -0.130158666282   9.414354770378  -2.768941991006 Bohr   0.0
[INPUT]  6 C     -0.013771000000   2.547333000000  -1.378866000000 AA   -0.026023418461   4.813761718067  -2.605679102475 Bohr   0.0
[INPUT]  7 C     -0.068251000000   6.214588000000  -0.869599000000 AA   -0.128975697728  11.743869297009  -1.643303948196 Bohr   0.0
[INPUT]  8 C     -0.125042000000   5.939238000000   0.867293000000 AA   -0.236295134068  11.223533208610   1.638946239752 Bohr   0.0
[INPUT]  9 C     -0.140996000000   1.342807000000   0.491052000000 AA   -0.266443824659   2.537537468149   0.927953792920 Bohr   0.0
[INPUT] 10 C     -0.010423000000   1.238387000000  -0.890140000000 AA   -0.019696615396   2.340212266222  -1.682120812520 Bohr   0.0
[INPUT] 11 C     -0.171735000000   0.127167000000   1.445138000000 AA   -0.324532116002   0.240310802083   2.730915032202 Bohr   0.0
[INPUT] 12 C      0.014777000000   0.056920000000  -1.348878000000 AA    0.027924482943   0.107563211010  -2.549009995451 Bohr   0.0
[INPUT] 13 C      0.015077000000  -1.253200000000   0.931849000000 AA    0.028491400780  -2.368204779305   1.760939399450 Bohr   0.0
[INPUT] 14 C      0.096887000000  -1.138188000000  -0.574408000000 AA    0.183089895031  -2.150863598266  -1.085473803759 Bohr   0.0
[INPUT] 15 C     -0.066509000000  -2.348257000000   1.408360000000 AA   -0.125683794819  -4.437562600093   2.661414684792 Bohr   0.0
[INPUT] 16 C      0.137850000000  -2.443066000000  -1.337925000000 AA    0.260498746271  -4.616725644237  -2.528311825209 Bohr   0.0
[INPUT] 17 C     -0.011138000000  -3.791483000000   0.534956000000 AA   -0.021047769575  -7.164864475944   1.010920328693 Bohr   0.0
[INPUT] 18 C     -0.102351000000  -3.812597000000  -0.831083000000 AA   -0.193415358575  -7.204764153338  -1.570519256782 Bohr   0.0
[INPUT] 19 C      0.152750000000  -4.987456000000   1.381202000000 AA    0.288655665527  -9.424925898319   2.610093502702 Bohr   0.0
[INPUT] 20 C     -0.133103000000  -4.830627000000  -1.198219000000 AA   -0.251528216358  -9.128562039929  -2.264305747250 Bohr   0.0
[INPUT] 21 C      0.047168000000  -6.115184000000   0.485489000000 AA    0.089134601843 -11.556022961322   0.917441246489 Bohr   0.0
[INPUT] 22 C     -0.097996000000  -6.173080000000  -0.533687000000 AA   -0.185185601303 -11.665430545030  -1.008522266241 Bohr   0.0
[INPUT] 23 H     -0.019830000000   4.974163000000   2.302763000000 AA   -0.037473269050   9.399805768945   4.351591399782 Bohr   0.0
[INPUT] 24 H      0.013723000000   2.223831000000   2.584268000000 AA    0.025932711607   4.202431537318   4.883558752478 Bohr   0.0
[INPUT] 25 H      0.209850000000   4.978094000000  -2.527569000000 AA    0.396559027240   9.407234282341  -4.776413170941 Bohr   0.0
[INPUT] 26 H     -0.138512000000   2.508239000000  -2.197426000000 AA   -0.261749744966   4.739884764953  -4.152533318999 Bohr   0.0
[INPUT] 27 H     -0.043144000000   7.067172000000  -1.083791000000 AA   -0.081530343918  13.355019555195  -2.048068166268 Bohr   0.0
[INPUT] 28 H      0.151163000000   6.896236000000   1.251139000000 AA    0.285656670168  13.031997330366   2.364310053762 Bohr   0.0
[INPUT] 29 H     -0.083970000000  -0.034554000000   2.653900000000 AA   -0.158680302680  -0.065297596508   5.015144161983 Bohr   0.0
[INPUT] 30 H      0.203366000000   0.029047000000  -2.554671000000 AA    0.384306043048   0.054890874740  -4.827628528369 Bohr   0.0
[INPUT] 31 H      0.043989000000  -2.583350000000   2.304148000000 AA    0.083127162493  -4.881823983895   4.354208670464 Bohr   0.0
[INPUT] 32 H     -0.034892000000  -2.504277000000  -2.540104000000 AA   -0.065936323938  -4.732397670047  -4.800100887912 Bohr   0.0
[INPUT] 33 H     -0.001528000000  -4.618154000000   2.598373000000 AA   -0.002887501518  -8.727046261065   4.910213339464 Bohr   0.0
[INPUT] 34 H     -0.070261000000  -4.874343000000  -2.617995000000 AA   -0.132774047238  -9.211173307191  -4.947293545481 Bohr   0.0
[INPUT] 35 H      0.047045000000  -7.110995000000   1.192840000000 AA    0.088902165530 -13.437833023152   2.254140910426 Bohr   0.0
[INPUT] 36 H     -0.044285000000  -7.012014000000  -1.141246000000 AA   -0.083686521426 -13.250786041616  -2.156642380755 Bohr   0.0
[INPUT] ---------------- BASIS SET ---------------- 
[INPUT] l, kappa, [nprim/nctr], expnt,             c_1 c_2 ...
[INPUT] H
[INPUT] 0    0    [3    /1   ]  3.42525091        0.15432897
                                0.62391373        0.53532814
                                0.1688554         0.44463454
[INPUT] C
[INPUT] 0    0    [3    /1   ]  71.616837         0.15432897
                                13.045096         0.53532814
                                3.5305122         0.44463454
[INPUT] 0    0    [3    /1   ]  2.9412494         -0.09996723
                                0.6834831         0.39951283
                                0.2222899         0.70011547
[INPUT] 1    0    [3    /1   ]  2.9412494         0.15591627
                                0.6834831         0.60768372
                                0.2222899         0.39195739

nuclear repulsion = 1508.18491002723
number of shells = 80
number of NR pGTOs = 372
number of NR cGTOs = 124
basis = sto3g
ecp = {}
CPU time:     33995.11
atom C rad-grids = 99, ang-grids = [ 50  50  50  50  50  50  50  50  50  50  50  50  50  50  50  50  50  50
  50  50  50  50  50  50  50  50  50  50  50  50  50  86  86  86  86  86
  86  86  86  86  86  86  86 434 434 434 434 434 434 434 434 434 590 590
 590 590 590 590 590 590 590 590 590 590 590 590 590 590 590 590 590 590
 590 590 590 590 590 590 590 434 434 434 434 434 434 434 434 434 434 434
 434 434 434 434 434 434 434 434 434]
atom H rad-grids = 99, ang-grids = [ 50  50  50  50  50  50  50  50  50  50  50  50  50  50  50  50  50  50
  50  50  50  50  50  50  50  50  50  50  86  86  86  86  86  86  86 434
 434 434 434 434 434 434 434 590 590 590 590 590 590 590 590 590 590 590
 590 590 590 590 590 590 590 590 590 590 590 590 590 590 590 434 434 434
 434 434 434 434 434 434 434 434 434 434 434 434 434 434 434 434 434 434
 434 434 434 434 434 434 434 434 434]
tot_boxes 5270, boxes in each direction [ 8 29 15]
Padding 0 grids
tot grids = 1157832


******** <class 'pyscf.dft.rks.RKS'> ********
method = RKS
initial guess = minao
damping factor = 0
level_shift factor = 0
DIIS = <class 'pyscf.scf.diis.CDIIS'>
diis_start_cycle = 1
diis_space = 8
SCF conv_tol = 1e-10
SCF conv_tol_grad = None
SCF max_cycles = 50
direct_scf = True
direct_scf_tol = 1e-13
chkfile to save SCF result = /home/saade/mlelec/tutorials/tmpct218z92
max_memory 4000 MB (current use 637 MB)
XC library pyscf.dft.libxc version 6.1.0
    S. Lehtola, C. Steigemann, M. J.T. Oliveira, and M. A.L. Marques.,  SoftwareX 7, 1–5 (2018)
XC functionals = b3lypg
    P. J. Stephens, F. J. Devlin, C. F. Chabalowski, and M. J. Frisch.,  J. Phys. Chem. 98, 11623 (1994)
radial grids: 
    Treutler-Ahlrichs [JCP 102, 346 (1995); DOI:10.1063/1.469408] (M4) radial grids
    
becke partition: Becke, JCP 88, 2547 (1988); DOI:10.1063/1.454033
pruning grids: <function nwchem_prune at 0x7f9db5616ca0>
grids dens level: 3
symmetrized grids: False
atomic radii adjust function: <function treutler_atomic_radii_adjust at 0x7f9db5617380>
User specified grid scheme (99, 590)
small_rho_cutoff = 1e-07
Set gradient conv threshold to 1e-05
Initial guess from minao.
nelec by numeric integration = 145.27023182281536
    CPU time for vxc     38.19 sec, wall time     16.27 sec
E1 = -4114.543970518405  Ecoul = 1890.6322936824804  Exc = -126.42498457769985
init E= -842.151751386394
cond(S) = 42.44949370561075
    CPU time for initialize scf     48.07 sec, wall time     18.64 sec
  HOMO = -0.202206848727208  LUMO = -0.157763592729445
  mo_energy =
[-1.01861616e+01 -1.01771197e+01 -1.01730431e+01 -1.01628816e+01
 -1.01496996e+01 -1.01439831e+01 -1.01423302e+01 -1.01335387e+01
 -1.01315264e+01 -1.01280449e+01 -1.01235936e+01 -1.01189723e+01
 -1.01129128e+01 -1.00954962e+01 -1.00946128e+01 -1.00919726e+01
 -1.00892724e+01 -1.00818779e+01 -1.00776918e+01 -1.00764050e+01
 -1.00757424e+01 -1.00675360e+01 -1.13977747e+00 -1.12903688e+00
 -1.05024396e+00 -1.02279487e+00 -1.00270423e+00 -9.70310205e-01
 -9.38649549e-01 -8.84995043e-01 -8.68552889e-01 -8.52399028e-01
 -8.00604523e-01 -7.86803516e-01 -7.34545655e-01 -7.06215072e-01
 -6.92927147e-01 -6.83777994e-01 -6.73001438e-01 -6.41185037e-01
 -6.29758019e-01 -6.01110964e-01 -5.94057591e-01 -5.77477183e-01
 -5.60226042e-01 -5.40012816e-01 -5.26840950e-01 -5.13450704e-01
 -5.07815068e-01 -5.04253081e-01 -4.94226213e-01 -4.83543745e-01
 -4.67721365e-01 -4.61105911e-01 -4.48318851e-01 -4.41280903e-01
 -4.31942754e-01 -4.25675307e-01 -4.11453899e-01 -4.02477446e-01
 -3.95833083e-01 -3.84926425e-01 -3.67305694e-01 -3.62197173e-01
 -3.51394774e-01 -3.30492669e-01 -3.18062307e-01 -3.01384825e-01
 -2.96680130e-01 -2.83977557e-01 -2.80210345e-01 -2.61684260e-01
 -2.02206849e-01 -1.57763593e-01 -8.88063177e-02 -5.36001725e-02
 -4.97223155e-02 -2.22475927e-02  2.06752305e-03  3.55244452e-02
  4.76881357e-02  5.67987203e-02  6.61333929e-02  8.39108328e-02
  9.34817633e-02  9.87045412e-02  1.13817770e-01  1.49165844e-01
  1.54042032e-01  1.73966947e-01  1.85530390e-01  1.98067076e-01
  2.07607634e-01  2.19638628e-01  2.44531295e-01  2.60636390e-01
  2.65838414e-01  2.93102657e-01  3.14822238e-01  3.26005403e-01
  3.37088764e-01  3.59075810e-01  3.64038573e-01  3.77577238e-01
  3.92409774e-01  4.02028185e-01  4.38811498e-01  4.60182513e-01
  5.04419452e-01  5.22622643e-01  5.48695067e-01  5.71653462e-01
  5.95702828e-01  6.28434568e-01  6.55888953e-01  6.60793634e-01
  7.04488363e-01  7.10479719e-01  7.96100718e-01  8.16318884e-01
  8.36283624e-01  8.99612509e-01  1.01259033e+00  1.16483937e+00]
nelec by numeric integration = 145.99999520372705
    CPU time for vxc     37.89 sec, wall time     15.79 sec
E1 = -4128.992063797397  Ecoul = 1910.859834432769  Exc = -125.06731123497863
cycle= 1 E= -835.014630572376  delta_E= 7.14  |g|= 0.344  |ddm|= 9.41
    CPU time for cycle= 1     38.10 sec, wall time     15.83 sec
  HOMO = -0.0927949142713142  LUMO = -0.017481298691278
  mo_energy =
[-10.0565922  -10.0321695  -10.03071333 -10.03051686 -10.02968794
 -10.02963174 -10.01969738 -10.00737746 -10.00496765  -9.99484527
  -9.99122967  -9.99042092  -9.98980316  -9.98957771  -9.98483382
  -9.98442608  -9.975888    -9.95615201  -9.94356978  -9.9215879
  -9.91609753  -9.91172098  -0.86746034  -0.85343553  -0.80192432
  -0.77788125  -0.75771894  -0.74197482  -0.73183185  -0.69582497
  -0.69192362  -0.67730832  -0.62901115  -0.62680364  -0.58170949
  -0.57165409  -0.55253261  -0.54406733  -0.53561896  -0.5050336
  -0.48668638  -0.4812057   -0.46256305  -0.45585179  -0.44221718
  -0.43070194  -0.41480663  -0.40286095  -0.38987527  -0.38734372
  -0.37852874  -0.37143148  -0.36023426  -0.35763245  -0.34999164
  -0.33929115  -0.33118799  -0.31081265  -0.3084434   -0.2928706
  -0.28028969  -0.26552578  -0.25512801  -0.24178545  -0.23604332
  -0.22277052  -0.22116036  -0.2082819   -0.19449486  -0.18501321
  -0.17950613  -0.15669002  -0.09279491  -0.0174813    0.06139517
   0.0844608    0.09223539   0.12042518   0.17954453   0.18448737
   0.2081054    0.21141263   0.22529609   0.23529608   0.24996512
   0.25662702   0.25989789   0.28275937   0.28552569   0.31162833
   0.32851833   0.33898997   0.35623609   0.36886981   0.40340109
   0.41334433   0.42308079   0.43768481   0.45300239   0.46065432
   0.48752698   0.5035822    0.51461032   0.51588443   0.5265153
   0.55532008   0.57906767   0.60935077   0.66738469   0.67685585
   0.71068121   0.72746006   0.75891554   0.81140498   0.81925425
   0.82117593   0.8433685    0.89488402   0.98496061   1.00635682
   1.03430764   1.10870608   1.20655848   1.35907273]
nelec by numeric integration = 145.99999526729292
    CPU time for vxc     37.82 sec, wall time     15.71 sec
E1 = -4123.488370305235  Ecoul = 1905.1972696761723  Exc = -124.89084153178115
cycle= 2 E= -834.997032133612  delta_E= 0.0176  |g|= 0.429  |ddm|= 1.22
    CPU time for cycle= 2     38.30 sec, wall time     15.79 sec
  HOMO = -0.0985849749733588  LUMO = -0.0197669581149876
  mo_energy =
[-10.04640625 -10.04375139 -10.04224575 -10.04077867 -10.03371722
 -10.03210455 -10.03099828 -10.03084895 -10.02997584 -10.02827544
 -10.02074364 -10.0154043  -10.01132353 -10.00800002 -10.00059335
  -9.99233324  -9.99224986  -9.98817836  -9.98500937  -9.98418806
  -9.98150062  -9.95868876  -0.89346356  -0.88405718  -0.82144511
  -0.80544831  -0.7849352   -0.76638769  -0.74638991  -0.70806264
  -0.69706214  -0.68378229  -0.6483254   -0.63114016  -0.6011017
  -0.58015393  -0.56099231  -0.5559721   -0.54765761  -0.51967296
  -0.51198039  -0.49344338  -0.48424242  -0.47027725  -0.45446158
  -0.43423431  -0.42832535  -0.41679231  -0.40476334  -0.39884939
  -0.39589513  -0.38237557  -0.37333933  -0.36491489  -0.35767491
  -0.35383978  -0.33731306  -0.3252452   -0.31589334  -0.30540006
  -0.30088871  -0.28440319  -0.27209476  -0.25822181  -0.2574119
  -0.23297433  -0.22808565  -0.21707094  -0.20741681  -0.19063845
  -0.18600944  -0.16763944  -0.09858497  -0.01976696   0.05043509
   0.07947      0.088114     0.11911647   0.15090161   0.18057188
   0.18803363   0.20433386   0.2092617    0.21949007   0.23880995
   0.24156066   0.26185235   0.27823345   0.28945371   0.31166831
   0.32264062   0.33370035   0.33457797   0.35524672   0.38925999
   0.40430809   0.41066307   0.43154402   0.44911979   0.46484997
   0.48264034   0.49774392   0.50566222   0.50912559   0.52299756
   0.54587189   0.57566179   0.600342     0.64500894   0.66213601
   0.69624515   0.70822487   0.74083396   0.77455726   0.79979988
   0.80368733   0.82988908   0.84649294   0.94543009   0.97909713
   0.98026685   1.07042794   1.16889132   1.32525885]
nelec by numeric integration = 145.99999522643242
    CPU time for vxc     37.60 sec, wall time     15.62 sec
E1 = -4125.700902417739  Ecoul = 1907.4090944123204  Exc = -124.93827888816197
cycle= 3 E= -835.045176866349  delta_E= -0.0481  |g|= 0.223  |ddm|= 0.924
    CPU time for cycle= 3     38.03 sec, wall time     15.69 sec
  HOMO = -0.106265156445719  LUMO = -0.0288557292046482
  mo_energy =
[-10.05455779 -10.04502382 -10.04249855 -10.04081314 -10.03616644
 -10.0331292  -10.0295749  -10.02667611 -10.02454647 -10.02315091
 -10.02284228 -10.01864175 -10.01665868 -10.01639265 -10.01103222
 -10.00997782 -10.00546123 -10.00474005 -10.00453134  -9.99771411
  -9.99617405  -9.99462804  -0.89772017  -0.87967988  -0.82751211
  -0.80822682  -0.79461418  -0.77100664  -0.750315    -0.70845672
  -0.69861028  -0.68974628  -0.64785494  -0.64329832  -0.60014806
  -0.58171461  -0.56414037  -0.55945762  -0.55359263  -0.5233911
  -0.51612895  -0.4973042   -0.48568181  -0.47521022  -0.45879603
  -0.43813448  -0.4330028   -0.42289181  -0.40916534  -0.40052986
  -0.39870284  -0.38061894  -0.37690636  -0.36713992  -0.36197809
  -0.3535693   -0.34317029  -0.33162728  -0.31925946  -0.30803652
  -0.30041494  -0.29202311  -0.27746496  -0.26370972  -0.26242355
  -0.23857586  -0.23645999  -0.2174644   -0.21489881  -0.19362758
  -0.18883858  -0.17226643  -0.10626516  -0.02885573   0.04680654
   0.07677729   0.08413798   0.11423531   0.14773057   0.17884393
   0.17984472   0.20024287   0.20714776   0.21232589   0.23514047
   0.23785028   0.25277498   0.26972213   0.27963878   0.30759586
   0.32277759   0.33231303   0.33638737   0.35440987   0.39089022
   0.40151273   0.40766258   0.4258831    0.44604202   0.45831592
   0.47320527   0.49392883   0.49625172   0.50378781   0.5177054
   0.53750063   0.57586488   0.60096202   0.64813001   0.65743947
   0.69320471   0.70687239   0.73184077   0.77705723   0.79424305
   0.79617843   0.82694741   0.85567071   0.94651164   0.96124922
   0.98744573   1.06041287   1.16600295   1.31718881]
nelec by numeric integration = 145.99999520710648
    CPU time for vxc     38.02 sec, wall time     15.80 sec
E1 = -4125.702106710819  Ecoul = 1907.40843817205  Exc = -124.9484064422578
cycle= 4 E= -835.057164953796  delta_E= -0.012  |g|= 0.127  |ddm|= 0.554
    CPU time for cycle= 4     38.49 sec, wall time     15.88 sec
  HOMO = -0.107266058405725  LUMO = -0.0305587494080601
  mo_energy =
[-10.05498333 -10.04957091 -10.0454187  -10.04249827 -10.03646916
 -10.03063316 -10.03048376 -10.02870187 -10.02731659 -10.02574874
 -10.02415023 -10.02291299 -10.01929167 -10.0163077  -10.01469956
 -10.00985551 -10.00906356 -10.00632538 -10.00528634 -10.00168528
 -10.00109804  -9.9996678   -0.8998014   -0.88138911  -0.82691173
  -0.81049758  -0.79337666  -0.77107975  -0.7515039   -0.71039087
  -0.70215445  -0.69019337  -0.65180843  -0.64094096  -0.60279304
  -0.58272983  -0.56745751  -0.56020325  -0.55207175  -0.52377042
  -0.51697007  -0.49774055  -0.48566762  -0.47423767  -0.46046869
  -0.43886361  -0.43342924  -0.42377087  -0.40996499  -0.40274079
  -0.40070189  -0.38219321  -0.37846402  -0.36796525  -0.36229957
  -0.35660056  -0.34299706  -0.33155518  -0.32183456  -0.31052304
  -0.3039263   -0.29155935  -0.27788474  -0.26455585  -0.26354156
  -0.24008992  -0.23578611  -0.22079959  -0.21591861  -0.19601066
  -0.19174001  -0.17431214  -0.10726606  -0.03055875   0.04463123
   0.07406802   0.08246256   0.11224881   0.14674968   0.17839191
   0.17943241   0.19884996   0.20581862   0.21102016   0.23581514
   0.23613233   0.25427867   0.27466061   0.27887419   0.30682715
   0.32033719   0.32707917   0.33340221   0.34877079   0.38681636
   0.39961432   0.40674044   0.42531782   0.44415315   0.45799242
   0.47208284   0.49338943   0.49688717   0.50311001   0.51720564
   0.53904518   0.57349192   0.59288263   0.64378461   0.65599117
   0.69117316   0.70722859   0.73655438   0.77574557   0.79238742
   0.79550969   0.82554646   0.85366487   0.94491515   0.96924436
   0.98576293   1.05874257   1.16266929   1.31613208]
nelec by numeric integration = 145.9999952318729
    CPU time for vxc     37.56 sec, wall time     15.69 sec
E1 = -4125.866362552128  Ecoul = 1907.5700921589848  Exc = -124.95136261903642
cycle= 5 E= -835.062722984948  delta_E= -0.00556  |g|= 0.047  |ddm|= 0.293
    CPU time for cycle= 5     38.01 sec, wall time     15.77 sec
  HOMO = -0.106985383904096  LUMO = -0.0297002361061861
  mo_energy =
[-10.05094543 -10.04550299 -10.04319094 -10.04150638 -10.03520264
 -10.03226127 -10.0309529  -10.03066899 -10.02959411 -10.02766122
 -10.02664071 -10.01941775 -10.01829398 -10.01617326 -10.01496137
 -10.01158145 -10.00972204 -10.0070031  -10.00386345 -10.00274736
 -10.00072562  -9.99926497  -0.89630822  -0.88351475  -0.82684465
  -0.80872718  -0.79291694  -0.77166694  -0.7530032   -0.71115756
  -0.70234889  -0.68947702  -0.65077627  -0.64186241  -0.6033457
  -0.58337882  -0.56538127  -0.56010805  -0.55299493  -0.52278757
  -0.516545    -0.49607273  -0.48553913  -0.47526521  -0.46058631
  -0.43903641  -0.43324587  -0.42363357  -0.40970799  -0.40252311
  -0.39931273  -0.38381921  -0.37805179  -0.36785556  -0.3627596
  -0.35635398  -0.34429236  -0.33166552  -0.3200261   -0.30914781
  -0.30377485  -0.29179711  -0.27738026  -0.26579589  -0.26402679
  -0.24166465  -0.23594952  -0.21880676  -0.21644903  -0.19721767
  -0.19168728  -0.17409793  -0.10698538  -0.02970024   0.04469842
   0.07446647   0.0808928    0.1107463    0.14633673   0.17994538
   0.18087913   0.19956058   0.20752568   0.21113342   0.23476221
   0.23578093   0.25361993   0.27387636   0.27827798   0.30774881
   0.31958441   0.3298659    0.33353191   0.35136016   0.38770835
   0.3995829    0.40558219   0.42473412   0.44399781   0.45796724
   0.47289226   0.49368916   0.4965925    0.50243314   0.51835335
   0.53780157   0.57164985   0.59581584   0.64317931   0.65770818
   0.69003093   0.70511869   0.7350128    0.7742718    0.79495992
   0.79663678   0.82503735   0.85140712   0.94358903   0.96800521
   0.98388326   1.0596602    1.1673216    1.31974861]
nelec by numeric integration = 145.99999522235026
    CPU time for vxc     37.98 sec, wall time     15.76 sec
E1 = -4125.9085312742245  Ecoul = 1907.6096756180377  Exc = -124.94950882984917
cycle= 6 E= -835.063454458805  delta_E= -0.000731  |g|= 0.0176  |ddm|= 0.0963
    CPU time for cycle= 6     38.50 sec, wall time     15.84 sec
  HOMO = -0.106722835234972  LUMO = -0.0293105270631176
  mo_energy =
[-10.05055803 -10.04413861 -10.04403964 -10.04113633 -10.03412973
 -10.0333968  -10.02945449 -10.02936731 -10.02712745 -10.02577872
 -10.02416285 -10.01769847 -10.01737391 -10.01661003 -10.01361907
 -10.01295401 -10.00706975 -10.00698987 -10.00387529 -10.00166161
 -10.00088237  -9.99792914  -0.89682716  -0.88203486  -0.82613536
  -0.80847985  -0.79242383  -0.77073727  -0.75167891  -0.71050454
  -0.70166173  -0.68917302  -0.6503641   -0.64117031  -0.60235251
  -0.58285977  -0.56542787  -0.55981065  -0.55239775  -0.52257967
  -0.51609412  -0.49606527  -0.48522294  -0.47451446  -0.45982699
  -0.43827162  -0.43265987  -0.42294827  -0.40930071  -0.40200853
  -0.39959289  -0.38265809  -0.37752971  -0.36776555  -0.36226468
  -0.35591211  -0.34341323  -0.33101623  -0.32009868  -0.3089245
  -0.30322511  -0.2912208   -0.27727874  -0.26473315  -0.26315111
  -0.24039904  -0.23565569  -0.21940157  -0.21568401  -0.19639196
  -0.19114263  -0.17362008  -0.10672284  -0.02931053   0.04543706
   0.07494239   0.08179399   0.11202539   0.1472708    0.17942596
   0.18089318   0.20007984   0.20745575   0.21190697   0.23570072
   0.23609052   0.25425973   0.27425806   0.27883839   0.30801495
   0.32057944   0.32954897   0.33408603   0.35106128   0.38815338
   0.40042686   0.40665855   0.42568499   0.44471064   0.45852996
   0.47316605   0.49428823   0.49735116   0.50314533   0.51873842
   0.53845305   0.57231964   0.59580563   0.64429127   0.65760488
   0.69145335   0.70644763   0.7355569    0.77537153   0.7949889
   0.79713953   0.82532642   0.85273979   0.9447659    0.96842052
   0.98502837   1.06067303   1.16609365   1.31960508]
nelec by numeric integration = 145.99999522414677
    CPU time for vxc     38.05 sec, wall time     15.78 sec
E1 = -4125.841155376714  Ecoul = 1907.5409468752582  Exc = -124.94825610470095
cycle= 7 E= -835.063554578926  delta_E= -0.0001  |g|= 0.00501  |ddm|= 0.0283
    CPU time for cycle= 7     38.56 sec, wall time     15.86 sec
  HOMO = -0.106586191804401  LUMO = -0.0291040548524872
  mo_energy =
[-10.05104107 -10.04384803 -10.04373027 -10.04161474 -10.03381219
 -10.03323161 -10.02930352 -10.02920845 -10.02730283 -10.02564055
 -10.02414305 -10.01798745 -10.01713571 -10.01534772 -10.01319276
 -10.01230651 -10.00792027 -10.00632028 -10.00366132 -10.00190663
 -10.00001275  -9.99781585  -0.89677827  -0.88192607  -0.82603033
  -0.8084713   -0.79234686  -0.7706867   -0.75156251  -0.71024985
  -0.70141815  -0.68914407  -0.65020411  -0.6410213   -0.60228539
  -0.58261783  -0.56534591  -0.55961399  -0.55227899  -0.52258421
  -0.5160564   -0.49617295  -0.48517704  -0.47435442  -0.45978196
  -0.43822618  -0.43270548  -0.42296362  -0.40919644  -0.40177206
  -0.39952182  -0.38255173  -0.3774117   -0.36756796  -0.36222561
  -0.35591314  -0.34328268  -0.33091637  -0.32008438  -0.30888846
  -0.30313383  -0.2911158   -0.27720242  -0.26457349  -0.26307421
  -0.24025613  -0.23545992  -0.2192638   -0.21552292  -0.19608484
  -0.19100449  -0.17356101  -0.10658619  -0.02910405   0.04555408
   0.07509785   0.08212228   0.11221116   0.14734702   0.17954822
   0.18095883   0.20009033   0.20731008   0.21204788   0.23597215
   0.23630054   0.25438383   0.27440881   0.27887384   0.30793973
   0.32066001   0.32963785   0.33405954   0.35120403   0.38827361
   0.40045668   0.40680447   0.42575508   0.44481581   0.45871272
   0.47334294   0.49433468   0.49742294   0.50327526   0.51861896
   0.53866021   0.57278636   0.59600634   0.64441074   0.65781394
   0.691515     0.7065305    0.73568246   0.77546639   0.79490167
   0.79707728   0.82567803   0.8528149    0.94488153   0.96864286
   0.98514422   1.06067911   1.16625245   1.31935415]
nelec by numeric integration = 145.99999522461596
    CPU time for vxc     38.38 sec, wall time     15.84 sec
E1 = -4125.825357207692  Ecoul = 1907.5250119452282  Exc = -124.9481272117891
cycle= 8 E= -835.063562447021  delta_E= -7.87e-06  |g|= 0.00147  |ddm|= 0.00784
    CPU time for cycle= 8     38.80 sec, wall time     15.91 sec
  HOMO = -0.106646853322679  LUMO = -0.02912709812705
  mo_energy =
[-10.05107922 -10.04397278 -10.0438332  -10.04164862 -10.03377745
 -10.03323435 -10.02941482 -10.02931702 -10.02738163 -10.02581997
 -10.02432653 -10.01802295 -10.01712237 -10.0156682  -10.01321275
 -10.01220444 -10.00758724 -10.00641877 -10.00365516 -10.00195289
  -9.99977778  -9.99789558  -0.89684598  -0.88196246  -0.82610559
  -0.80852779  -0.79240039  -0.77073245  -0.75159544  -0.7102316
  -0.70143882  -0.68915509  -0.65025135  -0.64106411  -0.6023334
  -0.58261211  -0.56538683  -0.55966982  -0.55230913  -0.5226001
  -0.51606249  -0.49618557  -0.48519829  -0.47438547  -0.45982061
  -0.43825884  -0.43273556  -0.42299604  -0.40923176  -0.4017491
  -0.39955579  -0.38257901  -0.37746682  -0.36761745  -0.36223651
  -0.3559063   -0.34329926  -0.33097004  -0.32010165  -0.3089309
  -0.30317333  -0.29116205  -0.27722592  -0.26459699  -0.26311079
  -0.24028906  -0.23550428  -0.21926342  -0.21553863  -0.19608032
  -0.19103299  -0.17356897  -0.10664685  -0.0291271    0.04553334
   0.07505151   0.08213912   0.11218734   0.14730568   0.17956815
   0.18091941   0.20005799   0.2073391    0.21204915   0.23598987
   0.23624231   0.25433362   0.27435771   0.27884786   0.30792437
   0.32063053   0.32961906   0.33404311   0.35116544   0.38821928
   0.40041106   0.40677623   0.42571145   0.44479478   0.45867065
   0.47329175   0.49429032   0.49736388   0.50324901   0.51861977
   0.5386028    0.57288023   0.59594227   0.64434149   0.65770601
   0.69148715   0.70646431   0.73563082   0.77543939   0.79487239
   0.7970564    0.82574788   0.8527862    0.94487175   0.96855178
   0.98513409   1.06064309   1.16618283   1.31932349]
nelec by numeric integration = 145.99999522444745
    CPU time for vxc     38.02 sec, wall time     15.74 sec
E1 = -4125.834193799381  Ecoul = 1907.5339142516505  Exc = -124.94819353616538
cycle= 9 E= -835.063563056665  delta_E= -6.1e-07  |g|= 0.000527  |ddm|= 0.00235
    CPU time for cycle= 9     38.45 sec, wall time     15.81 sec
  HOMO = -0.106651243711524  LUMO = -0.0291129091174372
  mo_energy =
[-10.05107394 -10.0439497  -10.04388954 -10.04164525 -10.03373161
 -10.03326328 -10.02936216 -10.02935504 -10.02728415 -10.02575916
 -10.02428165 -10.01801053 -10.01721619 -10.01562635 -10.01324253
 -10.01225135 -10.00768589 -10.00640253 -10.00366398 -10.00191691
  -9.99991864  -9.99792236  -0.89683909  -0.88198715  -0.82609399
  -0.80852445  -0.79239349  -0.77073075  -0.75159577  -0.71026354
  -0.70145376  -0.68915746  -0.65025352  -0.64105925  -0.60233408
  -0.5826452   -0.56538091  -0.55966694  -0.55230927  -0.52259897
  -0.5160777   -0.49618587  -0.48519847  -0.4743907   -0.45981704
  -0.43826875  -0.43273146  -0.42298912  -0.40922938  -0.40177484
  -0.39955444  -0.38259303  -0.3774526   -0.36759862  -0.36223171
  -0.35591635  -0.34330167  -0.33096438  -0.32009895  -0.30892696
  -0.30316625  -0.29115631  -0.27721046  -0.26460733  -0.26311716
  -0.24029034  -0.23550201  -0.2192488   -0.21555252  -0.1961072
  -0.19104169  -0.17357747  -0.10665124  -0.02911291   0.04553285
   0.07505157   0.082111     0.11218302   0.14730373   0.17958425
   0.18092843   0.20005411   0.20733564   0.21202753   0.23595562
   0.23625501   0.25434589   0.27438629   0.27886115   0.30793005
   0.32062718   0.32963126   0.33404721   0.35117563   0.38822882
   0.40042004   0.40676998   0.42572074   0.44478571   0.45866935
   0.47330237   0.4942852    0.49738202   0.50324066   0.51860673
   0.53861302   0.57281622   0.59594466   0.64434228   0.65771427
   0.69148538   0.70647217   0.7356443    0.7754216    0.79486848
   0.79705652   0.82567974   0.85276966   0.94484368   0.96857749
   0.98509543   1.06063356   1.16620454   1.31932713]
nelec by numeric integration = 145.9999952244756
    CPU time for vxc     37.96 sec, wall time     15.73 sec
E1 = -4125.833398635335  Ecoul = 1907.533147633523  Exc = -124.94822216914181
cycle= 10 E= -835.063563143723  delta_E= -8.71e-08  |g|= 0.000241  |ddm|= 0.000944
    CPU time for cycle= 10     38.37 sec, wall time     15.79 sec
  HOMO = -0.106655107971894  LUMO = -0.0291159867535669
  mo_energy =
[-10.0510637  -10.04394182 -10.04389372 -10.04163616 -10.03377639
 -10.03327259 -10.02937274 -10.02935479 -10.02733578 -10.02576095
 -10.02428068 -10.01804547 -10.01721364 -10.01561854 -10.01323981
 -10.01230827 -10.00765128 -10.00638595 -10.00367657 -10.00195095
  -9.99991602  -9.99791894  -0.89683938  -0.88199482  -0.82609754
  -0.80852751  -0.79239962  -0.7707396   -0.75160744  -0.71027175
  -0.70145883  -0.68915205  -0.65026007  -0.64105846  -0.60234301
  -0.5826488   -0.56537982  -0.55966987  -0.55231247  -0.52260377
  -0.51608563  -0.496184    -0.48520477  -0.474395    -0.45982298
  -0.43827274  -0.43273201  -0.42299434  -0.40923231  -0.40178572
  -0.39955718  -0.38260117  -0.37745916  -0.36760609  -0.36223269
  -0.35591452  -0.34330578  -0.33096836  -0.32009749  -0.30892949
  -0.30317377  -0.29116221  -0.27721572  -0.26461612  -0.26312527
  -0.24030256  -0.23550115  -0.21925447  -0.21555816  -0.19611652
  -0.19104158  -0.17357904  -0.10665511  -0.02911599   0.0455262
   0.07505612   0.08210168   0.11216979   0.1472949    0.17957639
   0.18092607   0.20005044   0.20734163   0.2120197    0.23594621
   0.23624905   0.25434261   0.274389     0.27885665   0.30793179
   0.32061689   0.32962634   0.334042     0.35117254   0.38822135
   0.40041072   0.40675943   0.42571288   0.44478603   0.45867164
   0.47329605   0.49428146   0.49738283   0.50323572   0.51861725
   0.53861117   0.57280099   0.59594387   0.64433404   0.65772011
   0.69147122   0.70646624   0.73564268   0.77541393   0.79487172
   0.79704583   0.82567759   0.85275979   0.94483419   0.9685742
   0.98508873   1.06062317   1.16619473   1.31933095]
nelec by numeric integration = 145.99999522449843
    CPU time for vxc     38.56 sec, wall time     15.79 sec
E1 = -4125.834121094553  Ecoul = 1907.533883995231  Exc = -124.94823609049726
cycle= 11 E= -835.063563162588  delta_E= -1.89e-08  |g|= 6.74e-05  |ddm|= 0.000383
    CPU time for cycle= 11     39.12 sec, wall time     15.87 sec
  HOMO = -0.106653130147297  LUMO = -0.0291116542811239
  mo_energy =
[-10.05105628 -10.04393434 -10.04388382 -10.04162812 -10.03376515
 -10.03326729 -10.02937347 -10.02934844 -10.02732364 -10.02576089
 -10.02428108 -10.01803791 -10.01720512 -10.01562225 -10.01324237
 -10.01228622 -10.00765282 -10.00638026 -10.00366192 -10.00194509
  -9.99991318  -9.99791889  -0.89683406  -0.8819892   -0.82609374
  -0.80852295  -0.79239593  -0.77073581  -0.75160163  -0.7102674
  -0.70145598  -0.68914994  -0.65025673  -0.64105481  -0.60233908
  -0.58264481  -0.56537827  -0.55966674  -0.55230935  -0.5226003
  -0.51608191  -0.49618038  -0.48520062  -0.47439103  -0.45981948
  -0.43826962  -0.43272916  -0.42299204  -0.40922942  -0.40178034
  -0.39955272  -0.38259614  -0.37745676  -0.36760358  -0.36223137
  -0.35591306  -0.3433016   -0.33096427  -0.32009596  -0.30892636
  -0.30317174  -0.29115929  -0.27721384  -0.26461162  -0.263122
  -0.2402971   -0.23549936  -0.21925435  -0.21555472  -0.19611205
  -0.1910396   -0.17357639  -0.10665313  -0.02911165   0.04553036
   0.07505754   0.08210712   0.11217538   0.14729865   0.17957699
   0.18092952   0.20005425   0.20734266   0.21202328   0.23595184
   0.23625167   0.25434563   0.27439068   0.27885838   0.30793388
   0.32062097   0.32962755   0.33404374   0.35117408   0.38822325
   0.40041431   0.40676422   0.42571719   0.44478882   0.45867453
   0.47330045   0.4942835    0.49738434   0.50323884   0.51861925
   0.5386143    0.57280879   0.59594534   0.64433698   0.6577229
   0.69147822   0.70646941   0.73564656   0.77541937   0.79487585
   0.79704884   0.82568078   0.85276408   0.94484068   0.96857933
   0.98509427   1.06062652   1.1662012    1.31933731]
nelec by numeric integration = 145.99999522451165
    CPU time for vxc     37.95 sec, wall time     15.73 sec
E1 = -4125.8336983858935  Ecoul = 1907.5334503768418  Exc = -124.94822518254337
cycle= 12 E= -835.063563164364  delta_E= -1.78e-09  |g|= 2.54e-05  |ddm|= 0.000138
    CPU time for cycle= 12     38.49 sec, wall time     15.81 sec
  HOMO = -0.106652965305048  LUMO = -0.0291112275430348
  mo_energy =
[-10.05105832 -10.0439375  -10.04388793 -10.04163026 -10.03376635
 -10.03326614 -10.02937008 -10.02935167 -10.02732097 -10.02575551
 -10.02428079 -10.01803573 -10.01720578 -10.01562206 -10.01324501
 -10.01229226 -10.00765392 -10.00637838 -10.00366034 -10.00193807
  -9.99990385  -9.99791413  -0.89683534  -0.88199002  -0.82609298
  -0.80852337  -0.7923941   -0.77073408  -0.75160172  -0.71026644
  -0.70145516  -0.68915029  -0.65025718  -0.641054    -0.60233929
  -0.58264415  -0.56537892  -0.55966682  -0.55230861  -0.52259985
  -0.51608061  -0.49618102  -0.48520061  -0.47439043  -0.45981924
  -0.43826893  -0.43272944  -0.4229913   -0.40922911  -0.40178036
  -0.39955361  -0.3825965   -0.37745642  -0.36760317  -0.36223116
  -0.35591369  -0.34330186  -0.33096408  -0.32009655  -0.30892664
  -0.30317142  -0.29115766  -0.27721338  -0.26461086  -0.26312025
  -0.24029689  -0.23549844  -0.2192548   -0.2155532   -0.19611112
  -0.19103949  -0.17357632  -0.10665297  -0.02911123   0.04553062
   0.07505738   0.08210796   0.11217579   0.14730002   0.17957692
   0.18092996   0.20005465   0.20734159   0.21202557   0.23595251
   0.23625221   0.25434649   0.27439105   0.27885868   0.30793314
   0.32062058   0.32962693   0.33404353   0.35117351   0.38822365
   0.40041469   0.40676435   0.42571728   0.44478828   0.45867441
   0.47330078   0.49428452   0.49738531   0.50323924   0.51861853
   0.5386151    0.57280952   0.59594457   0.64433727   0.6577221
   0.69147796   0.70646987   0.73564728   0.77541878   0.79487498
   0.79705125   0.82568407   0.85276463   0.94483985   0.96858172
   0.98509362   1.06062954   1.16619958   1.31933563]
nelec by numeric integration = 145.9999952245187
    CPU time for vxc     38.16 sec, wall time     16.09 sec
E1 = -4125.8337270242355  Ecoul = 1907.5334787494473  Exc = -124.94822491688463
cycle= 13 E= -835.063563164442  delta_E= -7.78e-11  |g|= 2.32e-05  |ddm|= 6.36e-05
    CPU time for cycle= 13     38.65 sec, wall time     16.17 sec
  HOMO = -0.106653325858775  LUMO = -0.0291114530919008
  mo_energy =
[-10.05105911 -10.04393777 -10.04388663 -10.04163108 -10.03376705
 -10.03326759 -10.02937213 -10.02935066 -10.02732238 -10.02575758
 -10.02428065 -10.01803882 -10.01720677 -10.01562144 -10.01324274
 -10.01228882 -10.00765277 -10.00637856 -10.00366285 -10.00194076
  -9.99990911  -9.99791566  -0.89683559  -0.88199023  -0.82609383
  -0.80852388  -0.79239516  -0.77073521  -0.75160195  -0.71026717
  -0.70145577  -0.6891503   -0.65025736  -0.64105456  -0.60233964
  -0.58264475  -0.56537887  -0.55966713  -0.55230927  -0.52260039
  -0.51608153  -0.4961813   -0.48520123  -0.47439095  -0.45981968
  -0.4382694   -0.43272968  -0.42299176  -0.4092295   -0.40178052
  -0.3995538   -0.38259676  -0.37745676  -0.36760364  -0.36223137
  -0.35591357  -0.34330181  -0.33096454  -0.32009642  -0.30892695
  -0.3031718   -0.29115861  -0.2772137   -0.26461134  -0.2631213
  -0.2402972   -0.235499    -0.21925446  -0.21555403  -0.19611172
  -0.19103967  -0.17357655  -0.10665333  -0.02911145   0.04553026
   0.07505741   0.08210743   0.11217542   0.14729911   0.1795771
   0.18092943   0.20005404   0.20734189   0.21202446   0.23595207
   0.2362517    0.25434588   0.27439101   0.27885836   0.30793318
   0.32062044   0.32962721   0.33404331   0.35117366   0.38822303
   0.40041415   0.40676415   0.42571694   0.44478846   0.45867449
   0.47330035   0.49428392   0.49738477   0.50323898   0.51861863
   0.53861449   0.572809     0.59594471   0.64433652   0.65772195
   0.69147777   0.7064691    0.73564647   0.7754184    0.79487474
   0.7970501    0.8256822    0.85276352   0.94483985   0.96858016
   0.98509316   1.06062835   1.1661993    1.31933516]
nelec by numeric integration = 145.99999522451387
    CPU time for vxc     38.17 sec, wall time     15.80 sec
E1 = -4125.833754662335  Ecoul = 1907.5335080416485  Exc = -124.94822657115813
cycle= 14 E= -835.063563164614  delta_E= -1.72e-10  |g|= 4.21e-06  |ddm|= 3.3e-05
    CPU time for cycle= 14     38.67 sec, wall time     15.88 sec
  HOMO = -0.106653487085785  LUMO = -0.0291116020841755
  mo_energy =
[-10.05105926 -10.04393815 -10.04388647 -10.04163121 -10.03376721
 -10.03326734 -10.02937153 -10.02935052 -10.02732227 -10.02575815
 -10.02428001 -10.01803875 -10.01720732 -10.01562128 -10.01324456
 -10.0122889  -10.0076528  -10.00637867 -10.00366245 -10.00194223
  -9.99990913  -9.99791656  -0.89683577  -0.88199022  -0.8260939
  -0.80852406  -0.79239548  -0.77073541  -0.7516019   -0.71026728
  -0.70145584  -0.68915034  -0.65025756  -0.64105455  -0.60233969
  -0.5826448   -0.56537907  -0.55966719  -0.55230925  -0.52260055
  -0.51608183  -0.49618139  -0.48520127  -0.47439097  -0.45981975
  -0.43826964  -0.4327297   -0.42299187  -0.40922961  -0.40178063
  -0.39955392  -0.38259676  -0.37745687  -0.36760363  -0.36223138
  -0.35591363  -0.34330176  -0.3309646   -0.32009661  -0.30892712
  -0.30317191  -0.29115881  -0.27721377  -0.26461144  -0.26312154
  -0.24029716  -0.23549906  -0.21925457  -0.21555418  -0.19611175
  -0.19103977  -0.17357665  -0.10665349  -0.0291116    0.04553017
   0.07505736   0.08210744   0.11217546   0.14729891   0.17957705
   0.18092923   0.20005384   0.20734183   0.21202414   0.23595193
   0.2362517    0.25434586   0.27439114   0.27885842   0.30793315
   0.3206204    0.32962695   0.33404327   0.3511734    0.38822291
   0.40041409   0.40676409   0.42571699   0.44478842   0.45867442
   0.47330023   0.49428366   0.49738473   0.50323889   0.51861857
   0.53861452   0.57280901   0.59594434   0.64433647   0.65772186
   0.69147776   0.70646929   0.73564661   0.7754184    0.79487453
   0.79704963   0.82568208   0.85276357   0.94483969   0.96858015
   0.98509306   1.06062766   1.16619907   1.31933501]
nelec by numeric integration = 145.99999522451546
    CPU time for vxc     37.95 sec, wall time     15.67 sec
E1 = -4125.833760393217  Ecoul = 1907.5335142434844  Exc = -124.94822704211333
cycle= 15 E= -835.063563164615  delta_E= -9.09e-13  |g|= 4.05e-06  |ddm|= 1.16e-05
    CPU time for cycle= 15     38.30 sec, wall time     15.73 sec
  HOMO = -0.106653303974365  LUMO = -0.0291113494103715
  mo_energy =
[-10.05105842 -10.04393654 -10.04388721 -10.04163037 -10.03376578
 -10.03326821 -10.02937272 -10.02935115 -10.02732274 -10.02575796
 -10.02428161 -10.01803881 -10.01720719 -10.01562141 -10.01324125
 -10.01229004 -10.00765321 -10.00637872 -10.00366294 -10.00194141
  -9.99990927  -9.99791646  -0.89683498  -0.88199075  -0.82609387
  -0.80852365  -0.79239533  -0.77073554  -0.75160236  -0.71026746
  -0.7014559   -0.68915018  -0.65025727  -0.64105472  -0.60233986
  -0.58264498  -0.56537855  -0.55966711  -0.55230944  -0.52260036
  -0.51608173  -0.49618102  -0.4852012   -0.4743912   -0.45981982
  -0.43826972  -0.43272969  -0.42299194  -0.40922952  -0.40178073
  -0.39955344  -0.38259714  -0.37745675  -0.36760354  -0.36223143
  -0.35591354  -0.34330208  -0.33096461  -0.32009617  -0.30892678
  -0.30317184  -0.2911588   -0.27721361  -0.26461177  -0.26312165
  -0.24029763  -0.23549904  -0.21925406  -0.21555435  -0.19611205
  -0.19103972  -0.17357658  -0.1066533   -0.02911135   0.04553017
   0.07505747   0.08210704   0.11217499   0.14729879   0.17957741
   0.18092961   0.200054     0.20734219   0.21202405   0.23595161
   0.23625166   0.25434574   0.27439097   0.27885829   0.30793332
   0.32062017   0.32962761   0.33404331   0.35117407   0.38822315
   0.40041401   0.40676374   0.42571674   0.44478834   0.45867442
   0.47330043   0.49428368   0.4973847    0.50323869   0.51861876
   0.53861435   0.57280853   0.59594511   0.64433637   0.65772229
   0.69147733   0.70646877   0.73564632   0.77541809   0.79487509
   0.79704983   0.82568189   0.85276317   0.94483936   0.96858003
   0.98509274   1.06062778   1.16620021   1.3193358 ]
nelec by numeric integration = 145.99999522451319
    CPU time for vxc     38.10 sec, wall time     15.78 sec
E1 = -4125.833769343348  Ecoul = 1907.5335228215831  Exc = -124.94822667004584
Extra cycle  E= -835.063563164579  delta_E= 3.55e-11  |g|= 1.1e-05  |ddm|= 2.37e-05
    CPU time for scf_cycle    663.27 sec, wall time    272.09 sec
    CPU time for SCF    663.27 sec, wall time    272.09 sec
converged SCF energy = -835.063563164579
nelec by numeric integration = 145.99999522451319
    CPU time for vxc     38.04 sec, wall time     15.81 sec
 ** Mulliken pop  **
pop of  0 C 1s            1.99093
pop of  0 C 2s            1.07264
pop of  0 C 2px           1.01920
pop of  0 C 2py           0.93229
pop of  0 C 2pz           0.97667
pop of  1 C 1s            1.99068
pop of  1 C 2s            1.05000
pop of  1 C 2px           0.99698
pop of  1 C 2py           0.97751
pop of  1 C 2pz           1.00060
pop of  2 C 1s            1.99141
pop of  2 C 2s            1.09204
pop of  2 C 2px           1.02127
pop of  2 C 2py           1.01440
pop of  2 C 2pz           1.05540
pop of  3 C 1s            1.99102
pop of  3 C 2s            1.17796
pop of  3 C 2px           0.95787
pop of  3 C 2py           0.95499
pop of  3 C 2pz           0.95704
pop of  4 C 1s            1.99120
pop of  4 C 2s            1.20318
pop of  4 C 2px           0.97899
pop of  4 C 2py           0.91790
pop of  4 C 2pz           0.95510
pop of  5 C 1s            1.99080
pop of  5 C 2s            1.03322
pop of  5 C 2px           1.05122
pop of  5 C 2py           0.98604
pop of  5 C 2pz           1.09746
pop of  6 C 1s            1.99166
pop of  6 C 2s            1.15218
pop of  6 C 2px           1.00346
pop of  6 C 2py           1.02387
pop of  6 C 2pz           0.96076
pop of  7 C 1s            1.99188
pop of  7 C 2s            1.12042
pop of  7 C 2px           0.98393
pop of  7 C 2py           1.03087
pop of  7 C 2pz           0.94862
pop of  8 C 1s            1.99106
pop of  8 C 2s            1.15907
pop of  8 C 2px           0.97689
pop of  8 C 2py           0.92157
pop of  8 C 2pz           0.93168
pop of  9 C 1s            1.99032
pop of  9 C 2s            1.05449
pop of  9 C 2px           1.02223
pop of  9 C 2py           0.99738
pop of  9 C 2pz           0.95295
pop of  10 C 1s           1.99165
pop of  10 C 2s           1.25729
pop of  10 C 2px          0.95256
pop of  10 C 2py          0.90164
pop of  10 C 2pz          0.93285
pop of  11 C 1s           1.99084
pop of  11 C 2s           1.12737
pop of  11 C 2px          1.01840
pop of  11 C 2py          0.95343
pop of  11 C 2pz          0.97305
pop of  12 C 1s           1.99091
pop of  12 C 2s           1.08787
pop of  12 C 2px          1.00115
pop of  12 C 2py          1.00494
pop of  12 C 2pz          0.94719
pop of  13 C 1s           1.99096
pop of  13 C 2s           1.17651
pop of  13 C 2px          0.98484
pop of  13 C 2py          0.91312
pop of  13 C 2pz          0.92230
pop of  14 C 1s           1.99136
pop of  14 C 2s           1.10709
pop of  14 C 2px          1.02381
pop of  14 C 2py          0.98355
pop of  14 C 2pz          1.03231
pop of  15 C 1s           1.99149
pop of  15 C 2s           1.23865
pop of  15 C 2px          0.95482
pop of  15 C 2py          0.89129
pop of  15 C 2pz          0.93576
pop of  16 C 1s           1.99147
pop of  16 C 2s           1.19521
pop of  16 C 2px          0.93580
pop of  16 C 2py          0.91525
pop of  16 C 2pz          0.91428
pop of  17 C 1s           1.99099
pop of  17 C 2s           1.00941
pop of  17 C 2px          1.03210
pop of  17 C 2py          1.05456
pop of  17 C 2pz          1.00707
pop of  18 C 1s           1.99130
pop of  18 C 2s           1.21989
pop of  18 C 2px          1.00088
pop of  18 C 2py          0.90871
pop of  18 C 2pz          0.92549
pop of  19 C 1s           1.99227
pop of  19 C 2s           1.08388
pop of  19 C 2px          0.97183
pop of  19 C 2py          1.00219
pop of  19 C 2pz          0.94792
pop of  20 C 1s           1.99222
pop of  20 C 2s           1.02281
pop of  20 C 2px          0.99809
pop of  20 C 2py          1.00709
pop of  20 C 2pz          1.05424
pop of  21 C 1s           1.99177
pop of  21 C 2s           1.03043
pop of  21 C 2px          1.03452
pop of  21 C 2py          1.00761
pop of  21 C 2pz          1.07411
pop of  22 H 1s           0.87677
pop of  23 H 1s           0.89962
pop of  24 H 1s           0.92153
pop of  25 H 1s           0.86704
pop of  26 H 1s           0.88524
pop of  27 H 1s           0.91501
pop of  28 H 1s           0.94042
pop of  29 H 1s           0.93387
pop of  30 H 1s           0.89818
pop of  31 H 1s           0.94523
pop of  32 H 1s           0.91828
pop of  33 H 1s           0.98622
pop of  34 H 1s           0.93278
pop of  35 H 1s           0.87610
 ** Mulliken atomic charges  **
charge of    0C =      0.00827
charge of    1C =     -0.01578
charge of    2C =     -0.17453
charge of    3C =     -0.03888
charge of    4C =     -0.04637
charge of    5C =     -0.15875
charge of    6C =     -0.13192
charge of    7C =     -0.07571
charge of    8C =      0.01973
charge of    9C =     -0.01737
charge of   10C =     -0.03598
charge of   11C =     -0.06308
charge of   12C =     -0.03205
charge of   13C =      0.01227
charge of   14C =     -0.13813
charge of   15C =     -0.01201
charge of   16C =      0.04799
charge of   17C =     -0.09414
charge of   18C =     -0.04627
charge of   19C =      0.00192
charge of   20C =     -0.07446
charge of   21C =     -0.13844
charge of   22H =      0.12323
charge of   23H =      0.10038
charge of   24H =      0.07847
charge of   25H =      0.13296
charge of   26H =      0.11476
charge of   27H =      0.08499
charge of   28H =      0.05958
charge of   29H =      0.06613
charge of   30H =      0.10182
charge of   31H =      0.05477
charge of   32H =      0.08172
charge of   33H =      0.01378
charge of   34H =      0.06722
charge of   35H =      0.12390
Dipole moment(X, Y, Z, Debye):  0.34531, -0.22748,  1.06918
nelec by numeric integration = 145.99999522451319
    CPU time for vxc     38.24 sec, wall time     15.86 sec
E1 = -4125.833769343348  Ecoul = 1907.5335228215833  Exc = -124.94822667004584
nelec by numeric integration = 145.99999522451319
    CPU time for vxc     37.93 sec, wall time     15.72 sec
E1 = -4125.833769343348  Ecoul = 1907.5335228215833  Exc = -124.94822667004584
