System: uname_result(system='Linux', node='cosmopc18', release='5.15.0-97-generic', version='#107-Ubuntu SMP Wed Feb 7 13:26:48 UTC 2024', machine='x86_64')  Threads 4
Python 3.11.8 (main, Feb 26 2024, 21:39:34) [GCC 11.2.0]
numpy 1.26.4  scipy 1.11.4
Date: Tue Apr  9 14:52:09 2024
PySCF version 2.3.0
PySCF path  /home/saade/miniconda3/envs/tutorial/lib/python3.11/site-packages/pyscf

[ENV] PYSCFAD_BACKEND torch
[CONFIG] conf_file None
[INPUT] verbose = 5
[INPUT] max_memory = 4000 
[INPUT] num. atoms = 36
[INPUT] num. electrons = 146
[INPUT] charge = 0
[INPUT] spin (= nelec alpha-beta = 2S) = 0
[INPUT] symmetry False subgroup None
[INPUT] Mole.unit = angstrom
[INPUT] Symbol           X                Y                Z      unit          X                Y                Z       unit  Magmom
[INPUT]  1 C      0.089459000000   3.598579000000   0.963160000000 AA    0.169053009377   6.800328747611   1.820108614136 Bohr   0.0
[INPUT]  2 C      0.147723000000   3.655080000000  -0.795415000000 AA    0.279156012299   6.907100163375  -1.503116505371 Bohr   0.0
[INPUT]  3 C      0.058788000000   5.052808000000   1.504681000000 AA    0.111093219411   9.548423280011   2.843434994837 Bohr   0.0
[INPUT]  4 C     -0.144704000000   2.491763000000   1.492251000000 AA   -0.273450929129   4.708749637325   2.819945699108 Bohr   0.0
[INPUT]  5 C      0.082492000000   4.964012000000  -1.297025000000 AA    0.155887287468   9.380623159054  -2.451022026714 Bohr   0.0
[INPUT]  6 C     -0.057275000000   2.324261000000  -1.508928000000 AA   -0.108234063784   4.392216732008  -2.851460661688 Bohr   0.0
[INPUT]  7 C      0.079468000000   6.202919000000  -0.817849000000 AA    0.150172755667  11.721818082861  -1.545510621249 Bohr   0.0
[INPUT]  8 C     -0.062387000000   5.961332000000   0.766674000000 AA   -0.117894343733  11.265284817606   1.448803886825 Bohr   0.0
[INPUT]  9 C     -0.040356000000   1.333884000000   0.701680000000 AA   -0.076261787483   2.520675441939   1.325983027085 Bohr   0.0
[INPUT] 10 C     -0.066843000000   1.174907000000  -0.673218000000 AA   -0.126314963344   2.220252451834  -1.272197642127 Bohr   0.0
[INPUT] 11 C     -0.120908000000  -0.028545000000   1.443238000000 AA   -0.228483006269  -0.053942232226   2.727324552565 Bohr   0.0
[INPUT] 12 C      0.037104000000  -0.258582000000  -1.420145000000 AA    0.070116398126  -0.488649160742  -2.683685107170 Bohr   0.0
[INPUT] 13 C      0.048115000000  -1.014786000000   0.636623000000 AA    0.090924172483  -1.917667615043   1.203043114599 Bohr   0.0
[INPUT] 14 C     -0.113418000000  -1.382425000000  -0.649176000000 AA   -0.214328957596  -2.612404637752  -1.226764846641 Bohr   0.0
[INPUT] 15 C     -0.052528000000  -2.343877000000   1.529575000000 AA   -0.099263533871  -4.429285599667   2.890477836982 Bohr   0.0
[INPUT] 16 C     -0.049827000000  -2.561216000000  -1.385606000000 AA   -0.094159383609  -4.839996785854  -2.618415856554 Bohr   0.0
[INPUT] 17 C      0.067324000000  -3.649686000000   0.613970000000 AA    0.127223921610  -6.896906980659   1.160235148699 Bohr   0.0
[INPUT] 18 C     -0.062285000000  -3.835340000000  -0.688074000000 AA   -0.117701591669  -7.247742194589  -1.300271413434 Bohr   0.0
[INPUT] 19 C     -0.146082000000  -4.795254000000   1.455360000000 AA   -0.276054971729  -9.061716757725   2.750231812647 Bohr   0.0
[INPUT] 20 C      0.241772000000  -4.859210000000  -1.321950000000 AA    0.456882864588  -9.182576081748  -2.498123450369 Bohr   0.0
[INPUT] 21 C      0.154631000000  -6.003508000000   0.859024000000 AA    0.292210240368 -11.344985906635   1.623320094428 Bohr   0.0
[INPUT] 22 C      0.057579000000  -5.985172000000  -0.784562000000 AA    0.108808540526 -11.310335888415  -1.482607307741 Bohr   0.0
[INPUT] 23 H     -0.138200000000   4.683958000000   2.344813000000 AA   -0.261160150415   8.851397798966   4.431054383320 Bohr   0.0
[INPUT] 24 H      0.029896000000   2.456951000000   2.421172000000 AA    0.056495252220   4.642964491476   4.575351980465 Bohr   0.0
[INPUT] 25 H     -0.104893000000   4.826930000000  -2.581697000000 AA   -0.198219042384   9.121575722447  -4.878700266611 Bohr   0.0
[INPUT] 26 H     -0.175039000000   2.661778000000  -2.537632000000 AA   -0.330775771118   5.030031424393  -4.795429484932 Bohr   0.0
[INPUT] 27 H      0.078138000000   7.056979000000  -1.131411000000 AA    0.147659419921  13.335757576807  -2.138056924320 Bohr   0.0
[INPUT] 28 H     -0.090190000000   7.163000000000   1.080265000000 AA   -0.170434399175  13.536108230260   2.041404991953 Bohr   0.0
[INPUT] 29 H     -0.013801000000   0.067643000000   2.391417000000 AA   -0.026080110245   0.127826744244   4.519123179629 Bohr   0.0
[INPUT] 30 H     -0.086925000000   0.098734000000  -2.347597000000 AA   -0.164264443378   0.186580219183  -4.436315380851 Bohr   0.0
[INPUT] 31 H     -0.071651000000  -2.315658000000   2.498994000000 AA   -0.135400766551  -4.375959418158   4.722414246931 Bohr   0.0
[INPUT] 32 H     -0.107733000000  -2.221224000000  -2.478521000000 AA   -0.203585864578  -4.197505021311  -4.683725883983 Bohr   0.0
[INPUT] 33 H     -0.080006000000  -4.995902000000   2.478766000000 AA   -0.151189428322  -9.440886525167   4.684188866884 Bohr   0.0
[INPUT] 34 H      0.077577000000  -4.887963000000  -2.329675000000 AA    0.146599283565  -9.236911377007  -4.402447709246 Bohr   0.0
[INPUT] 35 H     -0.270661000000  -7.019432000000   1.316248000000 AA   -0.511475162601 -13.264804030008   2.487348232007 Bohr   0.0
[INPUT] 36 H     -0.078996000000  -7.216670000000  -1.322092000000 AA   -0.149280804936 -13.637529831365  -2.498391791478 Bohr   0.0
[INPUT] ---------------- BASIS SET ---------------- 
[INPUT] l, kappa, [nprim/nctr], expnt,             c_1 c_2 ...
[INPUT] H
[INPUT] 0    0    [3    /1   ]  3.42525091        0.15432897
                                0.62391373        0.53532814
                                0.1688554         0.44463454
[INPUT] C
[INPUT] 0    0    [3    /1   ]  71.616837         0.15432897
                                13.045096         0.53532814
                                3.5305122         0.44463454
[INPUT] 0    0    [3    /1   ]  2.9412494         -0.09996723
                                0.6834831         0.39951283
                                0.2222899         0.70011547
[INPUT] 1    0    [3    /1   ]  2.9412494         0.15591627
                                0.6834831         0.60768372
                                0.2222899         0.39195739

nuclear repulsion = 1494.36288572988
number of shells = 80
number of NR pGTOs = 372
number of NR cGTOs = 124
basis = sto3g
ecp = {}
CPU time:     45408.33
atom C rad-grids = 99, ang-grids = [ 50  50  50  50  50  50  50  50  50  50  50  50  50  50  50  50  50  50
  50  50  50  50  50  50  50  50  50  50  50  50  50  86  86  86  86  86
  86  86  86  86  86  86  86 434 434 434 434 434 434 434 434 434 590 590
 590 590 590 590 590 590 590 590 590 590 590 590 590 590 590 590 590 590
 590 590 590 590 590 590 590 434 434 434 434 434 434 434 434 434 434 434
 434 434 434 434 434 434 434 434 434]
atom H rad-grids = 99, ang-grids = [ 50  50  50  50  50  50  50  50  50  50  50  50  50  50  50  50  50  50
  50  50  50  50  50  50  50  50  50  50  86  86  86  86  86  86  86 434
 434 434 434 434 434 434 434 590 590 590 590 590 590 590 590 590 590 590
 590 590 590 590 590 590 590 590 590 590 590 590 590 590 590 434 434 434
 434 434 434 434 434 434 434 434 434 434 434 434 434 434 434 434 434 434
 434 434 434 434 434 434 434 434 434]
tot_boxes 5440, boxes in each direction [ 8 30 15]
Padding 0 grids
tot grids = 1157832


******** <class 'pyscf.dft.rks.RKS'> ********
method = RKS
initial guess = minao
damping factor = 0
level_shift factor = 0
DIIS = <class 'pyscf.scf.diis.CDIIS'>
diis_start_cycle = 1
diis_space = 8
SCF conv_tol = 1e-10
SCF conv_tol_grad = None
SCF max_cycles = 50
direct_scf = True
direct_scf_tol = 1e-13
chkfile to save SCF result = /home/saade/mlelec/tutorials/tmps6g9flhn
max_memory 4000 MB (current use 638 MB)
XC library pyscf.dft.libxc version 6.1.0
    S. Lehtola, C. Steigemann, M. J.T. Oliveira, and M. A.L. Marques.,  SoftwareX 7, 1–5 (2018)
XC functionals = b3lypg
    P. J. Stephens, F. J. Devlin, C. F. Chabalowski, and M. J. Frisch.,  J. Phys. Chem. 98, 11623 (1994)
radial grids: 
    Treutler-Ahlrichs [JCP 102, 346 (1995); DOI:10.1063/1.469408] (M4) radial grids
    
becke partition: Becke, JCP 88, 2547 (1988); DOI:10.1063/1.454033
pruning grids: <function nwchem_prune at 0x7f9db5616ca0>
grids dens level: 3
symmetrized grids: False
atomic radii adjust function: <function treutler_atomic_radii_adjust at 0x7f9db5617380>
User specified grid scheme (99, 590)
small_rho_cutoff = 1e-07
Set gradient conv threshold to 1e-05
Initial guess from minao.
nelec by numeric integration = 145.2701648025863
    CPU time for vxc     37.35 sec, wall time     15.73 sec
E1 = -4088.7597232030216  Ecoul = 1879.1428379501822  Exc = -126.03511980327565
init E= -841.289119326233
cond(S) = 21.472958080487835
    CPU time for initialize scf     47.00 sec, wall time     18.06 sec
  HOMO = -0.199588358812987  LUMO = -0.146059470124861
  mo_energy =
[-10.14636455 -10.13936138 -10.13771019 -10.13399978 -10.12446627
 -10.12153274 -10.12052591 -10.10344837 -10.09984101 -10.09972379
 -10.09912541 -10.09835672 -10.09550955 -10.09496062 -10.09412754
 -10.09332905 -10.08895871 -10.08756501 -10.08234501 -10.07711619
 -10.07200076 -10.06507053  -1.10690995  -1.07337259  -1.03915649
  -0.98826484  -0.94363115  -0.93699889  -0.92270487  -0.89688382
  -0.86734111  -0.83972467  -0.78793285  -0.75285782  -0.72757101
  -0.71957712  -0.69846057  -0.6881051   -0.65827834  -0.64748398
  -0.61100555  -0.5835449   -0.57786227  -0.55698044  -0.54182406
  -0.53168537  -0.5197734   -0.50818663  -0.50374015  -0.49205549
  -0.48242389  -0.47049415  -0.4531095   -0.44540733  -0.44445711
  -0.43495965  -0.42317847  -0.4144527   -0.40195629  -0.38648429
  -0.38036688  -0.37077935  -0.35536326  -0.34414686  -0.33486601
  -0.32814185  -0.3165642   -0.3048156   -0.29857926  -0.2724657
  -0.25915331  -0.24362948  -0.19958836  -0.14605947  -0.10356338
  -0.06982931  -0.04586346  -0.0410237   -0.02889001   0.02476974
   0.03842698   0.08675019   0.08864562   0.09913699   0.114549
   0.12636874   0.13243088   0.14919424   0.15204197   0.16730545
   0.17578439   0.20227301   0.21735945   0.23471287   0.25033951
   0.26008869   0.26241067   0.29150013   0.30284255   0.32573104
   0.33864611   0.3513256    0.37607378   0.3896031    0.4288232
   0.45277981   0.45727572   0.48264198   0.49774561   0.51076812
   0.51490562   0.54306763   0.55502281   0.58306722   0.60101038
   0.61380675   0.62177536   0.68966206   0.70139425   0.71881147
   0.73210387   0.75026676   0.7596824    0.90483498]
nelec by numeric integration = 145.99999640339902
    CPU time for vxc     38.71 sec, wall time     16.07 sec
E1 = -4103.69007262759  Ecoul = 1898.5117046469202  Exc = -124.71338881548203
cycle= 1 E= -835.52887106627  delta_E= 5.76  |g|= 0.291  |ddm|= 9.27
    CPU time for cycle= 1     38.99 sec, wall time     16.13 sec
  HOMO = -0.0826539467428666  LUMO = 0.00095020425770778
  mo_energy =
[-1.00345567e+01 -1.00156876e+01 -1.00077134e+01 -1.00058843e+01
 -1.00046178e+01 -1.00044620e+01 -1.00035004e+01 -1.00024621e+01
 -9.99697616e+00 -9.99344397e+00 -9.99196310e+00 -9.99167746e+00
 -9.99055905e+00 -9.98598388e+00 -9.97675370e+00 -9.97249423e+00
 -9.96627913e+00 -9.96172660e+00 -9.94121373e+00 -9.93780952e+00
 -9.93528213e+00 -9.93226337e+00 -8.40596194e-01 -8.14160561e-01
 -7.93191076e-01 -7.61172100e-01 -7.38371654e-01 -7.28723087e-01
 -7.16127234e-01 -7.02509554e-01 -6.83328427e-01 -6.66144887e-01
 -6.24237250e-01 -6.00503358e-01 -5.82759307e-01 -5.78766102e-01
 -5.56920087e-01 -5.48591270e-01 -5.29668788e-01 -5.07874413e-01
 -4.93742816e-01 -4.72952403e-01 -4.49760019e-01 -4.39602870e-01
 -4.36034358e-01 -4.16657423e-01 -4.12476063e-01 -4.09109585e-01
 -3.93436908e-01 -3.90264190e-01 -3.72216412e-01 -3.52705017e-01
 -3.47356071e-01 -3.41873535e-01 -3.33387832e-01 -3.23668480e-01
 -3.16352352e-01 -3.04566249e-01 -3.00759041e-01 -2.87098543e-01
 -2.72482199e-01 -2.61201642e-01 -2.56912660e-01 -2.50208749e-01
 -2.37019617e-01 -2.18602150e-01 -2.01919699e-01 -1.92145288e-01
 -1.84960750e-01 -1.70844450e-01 -1.63631497e-01 -1.36005597e-01
 -8.26539467e-02  9.50204258e-04  3.84129878e-02  7.90723629e-02
  1.11410547e-01  1.12934022e-01  1.30063942e-01  1.76729553e-01
  1.99376882e-01  2.06447037e-01  2.32243015e-01  2.41580387e-01
  2.56193443e-01  2.83329541e-01  2.90247870e-01  2.99372894e-01
  3.14283457e-01  3.25721447e-01  3.30075666e-01  3.37442945e-01
  3.52251986e-01  3.68946361e-01  3.82574233e-01  3.90438747e-01
  4.03052612e-01  4.44140352e-01  4.48586230e-01  4.91309949e-01
  4.93759313e-01  5.15362544e-01  5.33170979e-01  5.45197298e-01
  5.71734380e-01  5.91675617e-01  6.20193448e-01  6.32259237e-01
  6.51200261e-01  6.58124670e-01  6.63452173e-01  6.94699474e-01
  7.14476379e-01  7.29890379e-01  7.58634007e-01  7.71838042e-01
  7.81860600e-01  8.24786129e-01  8.53804709e-01  8.97857110e-01
  9.00417192e-01  9.32700676e-01  9.40427274e-01  1.07982804e+00]
nelec by numeric integration = 145.99999638917973
    CPU time for vxc     38.38 sec, wall time     15.97 sec
E1 = -4098.465250079129  Ecoul = 1893.1276480071956  Exc = -124.56079740341599
cycle= 2 E= -835.535513745468  delta_E= -0.00664  |g|= 0.279  |ddm|= 0.896
    CPU time for cycle= 2     38.69 sec, wall time     16.02 sec
  HOMO = -0.101864883720964  LUMO = -0.0143672529005858
  mo_energy =
[-10.04678758 -10.03484858 -10.03170801 -10.02783234 -10.02604918
 -10.02097267 -10.02058879 -10.01831884 -10.01582336 -10.01494312
 -10.01368737 -10.00928413 -10.0091777  -10.00837662  -9.99996599
  -9.9956017   -9.99133459  -9.98991387  -9.98944066  -9.98943329
  -9.98103345  -9.97296471  -0.86916669  -0.84057412  -0.81731439
  -0.78165463  -0.75194269  -0.74856184  -0.7394638   -0.71670606
  -0.69749847  -0.67602194  -0.63976838  -0.61408849  -0.60026848
  -0.58965174  -0.57451718  -0.56665371  -0.54001761  -0.52850743
  -0.50548848  -0.48244971  -0.4794383   -0.45485501  -0.44464585
  -0.43095608  -0.42973301  -0.41896558  -0.40993492  -0.39861127
  -0.38694921  -0.37498057  -0.35810224  -0.35464709  -0.35070501
  -0.34629034  -0.33222392  -0.32156167  -0.31306919  -0.30133656
  -0.28401521  -0.27781703  -0.26392096  -0.25253059  -0.24759527
  -0.23905819  -0.22692528  -0.21353431  -0.20164721  -0.18026379
  -0.17655896  -0.14537129  -0.10186488  -0.01436725   0.0297483
   0.0658905    0.09078617   0.09726276   0.1091321    0.16595883
   0.17868896   0.22293285   0.22928353   0.23037447   0.2380924
   0.26363331   0.2722754    0.28616221   0.29108846   0.3036824
   0.32339898   0.34063225   0.35455451   0.36384131   0.37880251
   0.39222494   0.40050882   0.4265574    0.4321933    0.46302362
   0.47680275   0.49389091   0.51486322   0.52496076   0.56366174
   0.57904514   0.59475391   0.60971974   0.62870959   0.64713093
   0.64949901   0.67508474   0.68816798   0.71296613   0.7353914
   0.75115613   0.75745787   0.82443666   0.83420678   0.86532256
   0.87507375   0.89091742   0.90048962   1.0487494 ]
nelec by numeric integration = 145.9999964015975
    CPU time for vxc     38.81 sec, wall time     15.97 sec
E1 = -4100.672041171228  Ecoul = 1895.3549236413264  Exc = -124.60364203290902
cycle= 3 E= -835.557873832929  delta_E= -0.0224  |g|= 0.126  |ddm|= 0.562
    CPU time for cycle= 3     39.17 sec, wall time     16.03 sec
  HOMO = -0.105723389679581  LUMO = -0.0194732637408162
  mo_energy =
[-10.0418619  -10.03645821 -10.03173806 -10.02431212 -10.02266297
 -10.02206906 -10.02165301 -10.01917888 -10.01898334 -10.01826589
 -10.01631334 -10.01535964 -10.01300837 -10.01148409 -10.00767147
 -10.00657362 -10.00615253 -10.0052887  -10.0030924  -10.0003295
  -9.9993225   -9.99354371  -0.87009318  -0.84219851  -0.8186217
  -0.78384474  -0.75478608  -0.75056924  -0.74185573  -0.72198198
  -0.7023844   -0.6791638   -0.64163699  -0.61708466  -0.6032418
  -0.5927747   -0.57608119  -0.56831733  -0.54412222  -0.52819791
  -0.50879673  -0.48514106  -0.47641171  -0.45693822  -0.44861663
  -0.43211598  -0.4308335   -0.42217145  -0.41174813  -0.40226439
  -0.38917545  -0.37644289  -0.36215249  -0.35637905  -0.35392524
  -0.34835342  -0.33493076  -0.32423854  -0.31620129  -0.30427295
  -0.29040416  -0.28045912  -0.27085956  -0.25984171  -0.25387376
  -0.24154467  -0.22819622  -0.21592425  -0.20675458  -0.1853118
  -0.18025566  -0.15022346  -0.10572339  -0.01947326   0.02466529
   0.06092598   0.08732352   0.09205825   0.10586277   0.16186433
   0.1753695    0.22076949   0.22440646   0.22648891   0.23490724
   0.26202083   0.2700522    0.28386786   0.28941022   0.30219236
   0.31421244   0.32926842   0.34766344   0.36278432   0.37459942
   0.3874931    0.39516392   0.42492071   0.43262508   0.46361501
   0.47259932   0.49231175   0.513677     0.52242169   0.55909318
   0.57673386   0.59452276   0.61017136   0.62817545   0.6424839
   0.64342129   0.67486769   0.68853474   0.71295187   0.73322151
   0.7485092    0.75478078   0.81980224   0.82816308   0.86642143
   0.87019142   0.89253488   0.9019234    1.04517665]
nelec by numeric integration = 145.99999640061247
    CPU time for vxc     38.77 sec, wall time     15.98 sec
E1 = -4100.748003502323  Ecoul = 1895.4342767805467  Exc = -124.61219709247464
cycle= 4 E= -835.563038084369  delta_E= -0.00516  |g|= 0.0396  |ddm|= 0.228
    CPU time for cycle= 4     39.21 sec, wall time     16.06 sec
  HOMO = -0.10437366687739  LUMO = -0.0177112303460487
  mo_energy =
[-10.04004366 -10.03429295 -10.02938132 -10.02647717 -10.02255594
 -10.02211013 -10.0214886  -10.01925228 -10.01898944 -10.01536485
 -10.01447463 -10.01322855 -10.01187324 -10.00974468 -10.00928523
 -10.00891428 -10.00586544 -10.00442966 -10.00376883 -10.00115951
 -10.00099722  -9.98927371  -0.8680244   -0.84076336  -0.81841053
  -0.78420437  -0.75399175  -0.75056891  -0.74100372  -0.7209433
  -0.70147943  -0.68023025  -0.64144055  -0.61553748  -0.60100593
  -0.59294359  -0.57550432  -0.56722135  -0.54311279  -0.52875227
  -0.50769271  -0.48478662  -0.47686755  -0.45559458  -0.44869508
  -0.43175368  -0.43070086  -0.42349184  -0.41067402  -0.40166697
  -0.38828638  -0.37482365  -0.36170394  -0.35587251  -0.35287626
  -0.34772811  -0.33336358  -0.32406631  -0.31697429  -0.30424292
  -0.28942285  -0.28072993  -0.27071754  -0.25895551  -0.25387798
  -0.24088864  -0.22781786  -0.21505058  -0.20631317  -0.18533003
  -0.1812239   -0.1516922   -0.10437367  -0.01771123   0.0235034
   0.06211661   0.08822113   0.09284215   0.10694185   0.16042398
   0.17574235   0.21969029   0.2244311    0.22544939   0.23467421
   0.26221197   0.27008706   0.28298374   0.29013487   0.30294618
   0.31721838   0.33115589   0.34868078   0.3638459    0.37575548
   0.38591988   0.39390428   0.42588625   0.43298924   0.46443346
   0.47438517   0.49303833   0.51358148   0.52387626   0.55848171
   0.57735814   0.5956899    0.61167449   0.62928342   0.64282951
   0.64461617   0.6750315    0.68811279   0.71222374   0.73321097
   0.75012056   0.75769241   0.81757747   0.83008602   0.86504425
   0.87220964   0.89471161   0.90312384   1.04600035]
nelec by numeric integration = 145.99999639882458
    CPU time for vxc     38.38 sec, wall time     15.94 sec
E1 = -4100.674018005037  Ecoul = 1895.3585887196014  Exc = -124.61073035883228
cycle= 5 E= -835.563273914387  delta_E= -0.000236  |g|= 0.0299  |ddm|= 0.101
    CPU time for cycle= 5     38.85 sec, wall time     16.01 sec
  HOMO = -0.104423582497062  LUMO = -0.0177915897059402
  mo_energy =
[-10.04059432 -10.03594645 -10.02931767 -10.02631655 -10.02231619
 -10.02082126 -10.02054419 -10.01964391 -10.0157213  -10.01448297
 -10.01427731 -10.01229964 -10.01126394 -10.01024878 -10.00915868
 -10.00790848 -10.00688664 -10.00604579 -10.00259779 -10.00117115
  -9.99620291  -9.988465    -0.86810432  -0.8408445   -0.81799869
  -0.78363352  -0.75364489  -0.75039141  -0.74040286  -0.72067893
  -0.70125172  -0.67942997  -0.64086344  -0.61574122  -0.60145182
  -0.59237074  -0.57523735  -0.56691926  -0.54273471  -0.52829245
  -0.50717186  -0.484714    -0.47642527  -0.45560926  -0.44843309
  -0.43139462  -0.43024409  -0.4224293   -0.41066981  -0.40154499
  -0.38785489  -0.37503129  -0.36178539  -0.35618316  -0.35332716
  -0.34758397  -0.33370963  -0.32361181  -0.31670862  -0.30369546
  -0.28955515  -0.28039798  -0.27069971  -0.25826854  -0.25337668
  -0.24044094  -0.22724477  -0.21470508  -0.20594896  -0.18479737
  -0.18072009  -0.15097278  -0.10442358  -0.01779159   0.02420635
   0.06237891   0.08868286   0.093044     0.10736245   0.16125312
   0.17597089   0.22035676   0.2249783    0.22631434   0.2350237
   0.26269647   0.27041757   0.28345873   0.2901549    0.30343525
   0.31668211   0.33203843   0.34840353   0.36310685   0.37588839
   0.38664809   0.39428476   0.42567617   0.43323784   0.4644889
   0.47411414   0.49301393   0.51390356   0.52367947   0.55933479
   0.57813121   0.59556329   0.61154581   0.62975303   0.64282701
   0.64567396   0.67600468   0.68851744   0.71271746   0.73348503
   0.75038605   0.75624914   0.81880443   0.82940775   0.86564126
   0.87300131   0.89446655   0.90341162   1.04716358]
nelec by numeric integration = 145.9999964001666
    CPU time for vxc     38.37 sec, wall time     16.00 sec
E1 = -4100.698459318683  Ecoul = 1895.3816316479613  Exc = -124.60958056864358
cycle= 6 E= -835.563522509483  delta_E= -0.000249  |g|= 0.0154  |ddm|= 0.0692
    CPU time for cycle= 6     38.72 sec, wall time     16.06 sec
  HOMO = -0.104397353443877  LUMO = -0.0177369277144505
  mo_energy =
[-10.04057025 -10.03527584 -10.02975208 -10.02566563 -10.02152984
 -10.02035216 -10.02007344 -10.01907924 -10.01515729 -10.01468783
 -10.01323435 -10.01071025 -10.01031424 -10.00926334 -10.00805247
 -10.00762291 -10.00739539 -10.00567666 -10.0021589  -10.00016644
  -9.99903843  -9.98815181  -0.8678414   -0.84064734  -0.81767985
  -0.78319455  -0.75342969  -0.75006487  -0.74028712  -0.72035609
  -0.70089273  -0.67909417  -0.64083273  -0.61550462  -0.60142638
  -0.59215514  -0.57506689  -0.56670922  -0.54259016  -0.5280446
  -0.50715143  -0.48427985  -0.4764401   -0.45555958  -0.44814806
  -0.43121916  -0.43011555  -0.42207003  -0.41050419  -0.4012732
  -0.38794971  -0.37481447  -0.36124401  -0.35585788  -0.35298945
  -0.34734496  -0.33357798  -0.32333919  -0.31641988  -0.30359179
  -0.28913867  -0.28002575  -0.27019984  -0.25808562  -0.25300649
  -0.24032845  -0.22742174  -0.21466442  -0.20562601  -0.1844888
  -0.18039429  -0.15048071  -0.10439735  -0.01773693   0.0246637
   0.06256737   0.08887814   0.09341137   0.10741738   0.16176117
   0.17632062   0.22073824   0.22507054   0.22672107   0.23532905
   0.26278766   0.27074341   0.2838287    0.29031063   0.30323929
   0.31688692   0.33228489   0.34884675   0.36354992   0.37598004
   0.38714151   0.39483942   0.42589      0.43332422   0.46463992
   0.47439923   0.49331104   0.51426245   0.52382281   0.55962211
   0.57787376   0.59585789   0.61167696   0.6298875    0.64324275
   0.64562883   0.67579378   0.68879139   0.71308465   0.73378674
   0.75066419   0.75671831   0.81947177   0.8297618    0.86609424
   0.87313858   0.89455334   0.90336605   1.04734985]
nelec by numeric integration = 145.9999963995934
    CPU time for vxc     38.86 sec, wall time     15.98 sec
E1 = -4100.669858779759  Ecoul = 1895.3522410884395  Exc = -124.60887443801725
cycle= 7 E= -835.563606399455  delta_E= -8.39e-05  |g|= 0.00353  |ddm|= 0.0283
    CPU time for cycle= 7     39.53 sec, wall time     16.08 sec
  HOMO = -0.104205569713171  LUMO = -0.0175241339840105
  mo_energy =
[-10.04072228 -10.03496091 -10.02943684 -10.02559238 -10.02109704
 -10.02059335 -10.02011624 -10.01886655 -10.01571641 -10.01510621
 -10.01255997 -10.0108506  -10.01007644 -10.00915932 -10.00823256
 -10.00748728 -10.0070865  -10.00529097 -10.00208866 -10.00044512
  -9.99812978  -9.98853201  -0.86791607  -0.8404703   -0.81762802
  -0.78317316  -0.7532897   -0.74997421  -0.74027947  -0.72036111
  -0.70087236  -0.67899056  -0.64069376  -0.61539953  -0.60121965
  -0.59206467  -0.57500622  -0.56678641  -0.54259583  -0.52798257
  -0.50711287  -0.48427477  -0.4762875   -0.45541703  -0.44807294
  -0.43117518  -0.43012332  -0.42220375  -0.41044646  -0.4012483
  -0.3878421   -0.37480918  -0.36111772  -0.35567435  -0.35299146
  -0.34723779  -0.33347376  -0.32331837  -0.31638373  -0.30356714
  -0.28902657  -0.27995747  -0.2701149   -0.25821479  -0.25300102
  -0.24028362  -0.22720764  -0.21455617  -0.20562985  -0.18450293
  -0.18036535  -0.15036972  -0.10420557  -0.01752413   0.02480309
   0.06262468   0.0888786    0.09345431   0.1074842    0.16178444
   0.17639523   0.22074115   0.22488047   0.22666866   0.2353616
   0.26297168   0.27077327   0.28391025   0.2904685    0.30349707
   0.31707149   0.33208641   0.34899514   0.36363513   0.37585975
   0.3871525    0.39495292   0.42607889   0.43344346   0.46476885
   0.47445069   0.49346015   0.51433197   0.52396859   0.5597278
   0.57806286   0.59591659   0.61170752   0.62980592   0.64342623
   0.64561276   0.67593403   0.68894335   0.71310903   0.73388996
   0.7505634    0.75690042   0.81943875   0.82994168   0.86623259
   0.87294458   0.89457301   0.90344425   1.04716266]
nelec by numeric integration = 145.9999963996578
    CPU time for vxc     38.01 sec, wall time     15.85 sec
E1 = -4100.66014462326  Ecoul = 1895.3425617866774  Exc = -124.6089137623905
cycle= 8 E= -835.563610869091  delta_E= -4.47e-06  |g|= 0.000956  |ddm|= 0.00649
    CPU time for cycle= 8     38.50 sec, wall time     15.93 sec
  HOMO = -0.104233191969912  LUMO = -0.0175437925304175
  mo_energy =
[-10.04059269 -10.03500508 -10.02948189 -10.02557025 -10.02118023
 -10.02062616 -10.02001506 -10.0189995  -10.01571053 -10.01514214
 -10.01274453 -10.01078115 -10.0100805  -10.00913679 -10.00824562
 -10.00757932 -10.00708004 -10.00527757 -10.00228809 -10.00036586
  -9.9981904   -9.98837854  -0.86791182  -0.8405018   -0.8176401
  -0.783184    -0.753322    -0.74998989  -0.74030469  -0.72035997
  -0.70088035  -0.67900033  -0.64071319  -0.6154208   -0.6012584
  -0.5920794   -0.57503327  -0.56679823  -0.54260798  -0.52798847
  -0.50713139  -0.48427233  -0.47631624  -0.45543786  -0.44808244
  -0.43119087  -0.43013998  -0.4222002   -0.41045534  -0.40126876
  -0.38785814  -0.37481297  -0.36113912  -0.35571483  -0.35300184
  -0.34725921  -0.33348226  -0.32332227  -0.31635336  -0.30357025
  -0.2890399   -0.27997425  -0.27012752  -0.25819989  -0.253005
  -0.24030529  -0.22723646  -0.21457883  -0.20563752  -0.18448838
  -0.18035798  -0.15038373  -0.10423319  -0.01754379   0.02479019
   0.06262087   0.0888727    0.09343653   0.10745778   0.1618018
   0.17636732   0.22075624   0.22492507   0.22668067   0.23537629
   0.26295127   0.27077345   0.28391257   0.29044633   0.30346644
   0.31705126   0.33211732   0.34895826   0.36361455   0.37589755
   0.38716177   0.39497012   0.426044     0.4333861    0.46473962
   0.47443726   0.4934319    0.51431607   0.52394158   0.55971238
   0.57802285   0.59588937   0.61167604   0.6297685    0.64337569
   0.64559014   0.67588176   0.68891581   0.71311679   0.73386885
   0.75055917   0.75687294   0.81946892   0.82991839   0.86622747
   0.87295103   0.89457517   0.90343423   1.04714306]
nelec by numeric integration = 145.9999963996978
    CPU time for vxc     37.74 sec, wall time     15.75 sec
E1 = -4100.663442751722  Ecoul = 1895.3458843859569  Exc = -124.60893854460963
cycle= 9 E= -835.563611180493  delta_E= -3.11e-07  |g|= 0.000283  |ddm|= 0.00157
    CPU time for cycle= 9     38.20 sec, wall time     15.83 sec
  HOMO = -0.104252237814192  LUMO = -0.0175571112086199
  mo_energy =
[-10.04058915 -10.03503724 -10.02949981 -10.02559183 -10.02120182
 -10.02059459 -10.02004935 -10.01895914 -10.01566051 -10.01511984
 -10.01273783 -10.01080507 -10.01010691 -10.00914609 -10.00822655
 -10.00760681 -10.00710001 -10.00530727 -10.00223482 -10.00040542
  -9.9982386   -9.98845146  -0.86791402  -0.84051227  -0.81765052
  -0.78318857  -0.7533275   -0.75000339  -0.74030444  -0.72036479
  -0.7008841   -0.67901155  -0.64072824  -0.61543151  -0.60127252
  -0.59209072  -0.5750357   -0.56679754  -0.54261335  -0.52800034
  -0.50713818  -0.48428002  -0.47632914  -0.4554487   -0.44808814
  -0.43119523  -0.43013944  -0.4221961   -0.4104615   -0.40126581
  -0.38787037  -0.3748187   -0.36114683  -0.35572628  -0.35300174
  -0.34726564  -0.33349232  -0.32332892  -0.31635394  -0.30357262
  -0.28904652  -0.27997915  -0.27013248  -0.25819902  -0.25300767
  -0.24031252  -0.22724987  -0.21458773  -0.20563937  -0.18449439
  -0.18036398  -0.15039658  -0.10425224  -0.01755711   0.02477977
   0.06260968   0.08887252   0.09343431   0.10745358   0.16179085
   0.17636541   0.22075511   0.22494809   0.22667925   0.23537081
   0.26293634   0.2707685    0.28390347   0.2904358    0.3034506
   0.31704426   0.33211453   0.34896002   0.36360364   0.37588613
   0.38716387   0.39496169   0.42603522   0.43338123   0.46472933
   0.47443157   0.49341918   0.51430864   0.52393321   0.55969826
   0.57800676   0.59587938   0.61167257   0.62977012   0.64337279
   0.64558035   0.67587488   0.68890427   0.7131015    0.73385865
   0.75056315   0.75685581   0.81945186   0.82990446   0.86621199
   0.87296005   0.8945694    0.90342608   1.04715707]
nelec by numeric integration = 145.99999639971253
    CPU time for vxc     38.14 sec, wall time     15.93 sec
E1 = -4100.663891707674  Ecoul = 1895.3463450755728  Exc = -124.60895030177836
cycle= 10 E= -835.563611203998  delta_E= -2.35e-08  |g|= 0.00011  |ddm|= 0.000485
    CPU time for cycle= 10     38.78 sec, wall time     16.02 sec
  HOMO = -0.104253062167315  LUMO = -0.0175577459804946
  mo_energy =
[-10.04062524 -10.03503537 -10.029501   -10.02560533 -10.02120362
 -10.02058868 -10.02004895 -10.01897267 -10.01567491 -10.01511884
 -10.01274363 -10.01080465 -10.01009909 -10.00915507 -10.00822523
 -10.00760105 -10.00711377 -10.00531692 -10.00223755 -10.00039457
  -9.99822627  -9.98842861  -0.86792258  -0.84051572  -0.81764914
  -0.78318847  -0.75332925  -0.75000344  -0.74030802  -0.72036593
  -0.70088631  -0.67901165  -0.64072734  -0.61543343  -0.60127398
  -0.59209089  -0.57503805  -0.56679887  -0.54261301  -0.52799939
  -0.50713898  -0.48428239  -0.47633045  -0.45544981  -0.44808914
  -0.43119628  -0.43013984  -0.42219336  -0.410465    -0.40126813
  -0.38787061  -0.37482366  -0.36114869  -0.35572756  -0.3530042
  -0.3472687   -0.33349595  -0.32332839  -0.31635574  -0.30357424
  -0.28904815  -0.27997944  -0.27013338  -0.25819994  -0.253008
  -0.24031299  -0.22725181  -0.21458957  -0.20564108  -0.18449543
  -0.18036399  -0.15039687  -0.10425306  -0.01755775   0.02477961
   0.06260988   0.08886739   0.09343399   0.10745186   0.16179189
   0.17636451   0.22075569   0.22494162   0.22668102   0.23536836
   0.26293577   0.27076556   0.28390383   0.29043317   0.30344918
   0.31704041   0.33211456   0.34895661   0.36360337   0.37589025
   0.38716326   0.39495947   0.42603254   0.43338085   0.4647273
   0.47443148   0.49341787   0.51430642   0.52392991   0.55969967
   0.57800906   0.59587833   0.61167079   0.62977308   0.64337026
   0.64558558   0.67587502   0.68890243   0.7131015    0.73385752
   0.75055579   0.75685259   0.81945246   0.82990165   0.86621265
   0.87295185   0.89456056   0.90341903   1.04716114]
nelec by numeric integration = 145.9999963997048
    CPU time for vxc     38.27 sec, wall time     15.86 sec
E1 = -4100.664140255874  Ecoul = 1895.3465965867456  Exc = -124.60895326855109
cycle= 11 E= -835.563611207798  delta_E= -3.8e-09  |g|= 3.83e-05  |ddm|= 0.000183
    CPU time for cycle= 11     38.59 sec, wall time     15.92 sec
  HOMO = -0.104251199649815  LUMO = -0.0175553808724624
  mo_energy =
[-10.04061499 -10.0350331  -10.02949773 -10.02559289 -10.02119979
 -10.02059572 -10.02004934 -10.0189725  -10.0156701  -10.01511588
 -10.01273865 -10.01080609 -10.01010288 -10.0091531  -10.00822997
 -10.00760414 -10.00710782 -10.00531489 -10.00223476 -10.0003977
  -9.99822361  -9.9884287   -0.8679178   -0.84051324  -0.81764957
  -0.78318923  -0.75332757  -0.75000203  -0.74030461  -0.72036538
  -0.70088492  -0.67901108  -0.64072547  -0.61543155  -0.60127167
  -0.59208976  -0.57503604  -0.56679776  -0.54261148  -0.52799898
  -0.50713698  -0.48428121  -0.47632813  -0.45544844  -0.44808863
  -0.43119477  -0.43013907  -0.42219621  -0.41046241  -0.40126674
  -0.38786748  -0.37482017  -0.3611478   -0.3557258   -0.353003
  -0.34726682  -0.33349316  -0.32332883  -0.31635787  -0.30357255
  -0.28904825  -0.2799796   -0.27013392  -0.25819821  -0.25300834
  -0.24031038  -0.22724864  -0.21458707  -0.20564071  -0.18449512
  -0.18036463  -0.15039675  -0.1042512   -0.01755538   0.02478039
   0.06261189   0.08887074   0.09343399   0.10745514   0.16179054
   0.17636473   0.22075348   0.22494183   0.22667876   0.23536881
   0.26293766   0.27076693   0.28390369   0.29043552   0.30345246
   0.31704194   0.33211656   0.34895721   0.36360489   0.37589105
   0.38716127   0.39495883   0.4260345    0.43338384   0.46472961
   0.47443113   0.4934195    0.51430781   0.52393236   0.55970051
   0.57801147   0.59588075   0.61167306   0.62977231   0.64337148
   0.64558796   0.67587884   0.68890404   0.71310216   0.73385893
   0.75056011   0.75685483   0.81945173   0.82990341   0.86621233
   0.87295672   0.89456513   0.90342347   1.04715695]
nelec by numeric integration = 145.99999639970392
    CPU time for vxc     38.18 sec, wall time     15.82 sec
E1 = -4100.6639614595215  Ecoul = 1895.3464154632143  Exc = -124.60895094190491
cycle= 12 E= -835.56361120833  delta_E= -5.32e-10  |g|= 1.21e-05  |ddm|= 7.07e-05
    CPU time for cycle= 12     38.85 sec, wall time     15.92 sec
  HOMO = -0.104250594627098  LUMO = -0.0175544653125878
  mo_energy =
[-10.04061417 -10.03503247 -10.02949693 -10.02559667 -10.02120021
 -10.02059364 -10.02004833 -10.01897004 -10.01567075 -10.01511754
 -10.01273966 -10.0108039  -10.01010139 -10.00915214 -10.00822843
 -10.00760219 -10.00710659 -10.00531136 -10.00223544 -10.00039528
  -9.99822188  -9.98843107  -0.86791827  -0.84051252  -0.81764859
  -0.78318825  -0.75332708  -0.75000153  -0.74030491  -0.72036479
  -0.70088459  -0.67901032  -0.64072502  -0.61543103  -0.60127089
  -0.59208925  -0.57503586  -0.56679762  -0.54261159  -0.52799843
  -0.50713668  -0.48428073  -0.47632761  -0.45544771  -0.44808827
  -0.43119467  -0.43013903  -0.42219526  -0.41046237  -0.40126673
  -0.3878677   -0.37482035  -0.36114716  -0.35572525  -0.35300287
  -0.34726631  -0.33349293  -0.32332792  -0.31635718  -0.30357272
  -0.28904706  -0.27997884  -0.27013285  -0.25819881  -0.25300771
  -0.24031066  -0.22724832  -0.21458685  -0.2056402   -0.1844949
  -0.18036407  -0.15039597  -0.10425059  -0.01755447   0.02478118
   0.06261189   0.08887069   0.09343471   0.10745485   0.16179158
   0.17636551   0.22075441   0.22494138   0.22667974   0.23536931
   0.26293835   0.27076722   0.28390436   0.29043598   0.30345292
   0.31704301   0.33211583   0.34895772   0.36360502   0.37589003
   0.38716212   0.39495972   0.426035     0.43338353   0.46472999
   0.47443209   0.49342015   0.51430833   0.5239328    0.5597012
   0.57801187   0.59588079   0.6116732    0.62977297   0.6433721
   0.64558719   0.6758785    0.68890464   0.71310288   0.73385947
   0.75055949   0.7568558    0.81945295   0.82990449   0.86621337
   0.87295591   0.89456518   0.90342366   1.04715833]
nelec by numeric integration = 145.99999639970457
    CPU time for vxc     38.21 sec, wall time     15.89 sec
E1 = -4100.663937008889  Ecoul = 1895.3463904963746  Exc = -124.60895042573954
cycle= 13 E= -835.563611208372  delta_E= -4.18e-11  |g|= 7.09e-06  |ddm|= 2.83e-05
    CPU time for cycle= 13     38.68 sec, wall time     15.96 sec
  HOMO = -0.104251650039244  LUMO = -0.0175555777173381
  mo_energy =
[-10.04061514 -10.03503414 -10.02949784 -10.02559468 -10.02119947
 -10.02059394 -10.02004915 -10.01897151 -10.01567038 -10.01511768
 -10.01273848 -10.01080536 -10.01010133 -10.00915236 -10.00822857
 -10.00760569 -10.00710635 -10.00531818 -10.00223523 -10.00039714
  -9.99822207  -9.98842833  -0.8679186   -0.84051332  -0.81764923
  -0.78318878  -0.75332751  -0.7500021   -0.74030488  -0.72036536
  -0.7008849   -0.67901069  -0.64072549  -0.61543191  -0.60127209
  -0.59208965  -0.57503602  -0.56679786  -0.54261164  -0.52799873
  -0.50713714  -0.48428145  -0.47632796  -0.45544852  -0.44808845
  -0.43119485  -0.43013904  -0.42219559  -0.4104627   -0.40126677
  -0.38786771  -0.37482075  -0.36114775  -0.35572606  -0.35300332
  -0.34726675  -0.33349362  -0.32332855  -0.31635734  -0.3035725
  -0.28904823  -0.2799793   -0.27013371  -0.25819832  -0.25300801
  -0.24031072  -0.2272487   -0.21458726  -0.20564052  -0.18449493
  -0.18036422  -0.15039643  -0.10425165  -0.01755558   0.02478083
   0.06261178   0.08887046   0.09343425   0.10745472   0.16179112
   0.17636498   0.22075416   0.22494208   0.2266794    0.23536892
   0.26293771   0.27076693   0.28390395   0.29043534   0.30345235
   0.31704163   0.33211647   0.34895732   0.36360433   0.37589094
   0.38716189   0.3949593    0.42603435   0.43338331   0.46472937
   0.47443105   0.49341937   0.51430789   0.5239321    0.55970083
   0.57801144   0.59588034   0.61167263   0.62977261   0.64337173
   0.64558788   0.67587865   0.68890428   0.71310218   0.73385912
   0.75055942   0.75685393   0.81945206   0.829903     0.86621317
   0.87295611   0.8945645    0.90342321   1.04715807]
nelec by numeric integration = 145.99999639970528
    CPU time for vxc     38.92 sec, wall time     15.98 sec
E1 = -4100.663985865048  Ecoul = 1895.3464402063598  Exc = -124.60895127947119
Extra cycle  E= -835.563611208278  delta_E= 9.46e-11  |g|= 1.75e-05  |ddm|= 4.07e-05
    CPU time for scf_cycle    591.15 sec, wall time    242.07 sec
    CPU time for SCF    591.15 sec, wall time    242.07 sec
converged SCF energy = -835.563611208278
nelec by numeric integration = 145.99999639970528
    CPU time for vxc     38.04 sec, wall time     15.96 sec
 ** Mulliken pop  **
pop of  0 C 1s            1.99182
pop of  0 C 2s            1.18001
pop of  0 C 2px           0.92509
pop of  0 C 2py           0.94265
pop of  0 C 2pz           0.92738
pop of  1 C 1s            1.99163
pop of  1 C 2s            1.22586
pop of  1 C 2px           0.97296
pop of  1 C 2py           0.91057
pop of  1 C 2pz           0.90778
pop of  2 C 1s            1.99122
pop of  2 C 2s            1.05003
pop of  2 C 2px           1.05963
pop of  2 C 2py           0.98521
pop of  2 C 2pz           1.08020
pop of  3 C 1s            1.99043
pop of  3 C 2s            1.08994
pop of  3 C 2px           1.06305
pop of  3 C 2py           0.98912
pop of  3 C 2pz           1.04052
pop of  4 C 1s            1.99120
pop of  4 C 2s            1.15041
pop of  4 C 2px           0.96896
pop of  4 C 2py           0.96363
pop of  4 C 2pz           0.95620
pop of  5 C 1s            1.99113
pop of  5 C 2s            1.19338
pop of  5 C 2px           0.97776
pop of  5 C 2py           0.94046
pop of  5 C 2pz           0.97974
pop of  6 C 1s            1.99108
pop of  6 C 2s            1.11872
pop of  6 C 2px           1.05596
pop of  6 C 2py           1.02420
pop of  6 C 2pz           0.93784
pop of  7 C 1s            1.99166
pop of  7 C 2s            1.13013
pop of  7 C 2px           0.95382
pop of  7 C 2py           0.99246
pop of  7 C 2pz           0.96428
pop of  8 C 1s            1.99082
pop of  8 C 2s            1.14315
pop of  8 C 2px           0.95882
pop of  8 C 2py           0.93552
pop of  8 C 2pz           0.94757
pop of  9 C 1s            1.99093
pop of  9 C 2s            1.16618
pop of  9 C 2px           1.00191
pop of  9 C 2py           0.93008
pop of  9 C 2pz           0.92819
pop of  10 C 1s           1.99096
pop of  10 C 2s           1.12332
pop of  10 C 2px          1.02651
pop of  10 C 2py          0.94824
pop of  10 C 2pz          1.01892
pop of  11 C 1s           1.99143
pop of  11 C 2s           1.18191
pop of  11 C 2px          0.97354
pop of  11 C 2py          0.93008
pop of  11 C 2pz          0.99220
pop of  12 C 1s           1.99086
pop of  12 C 2s           1.08760
pop of  12 C 2px          0.98619
pop of  12 C 2py          0.97079
pop of  12 C 2pz          0.95929
pop of  13 C 1s           1.99030
pop of  13 C 2s           1.08923
pop of  13 C 2px          1.00706
pop of  13 C 2py          0.98045
pop of  13 C 2pz          0.95779
pop of  14 C 1s           1.99176
pop of  14 C 2s           1.24028
pop of  14 C 2px          0.96203
pop of  14 C 2py          0.90470
pop of  14 C 2pz          0.97286
pop of  15 C 1s           1.99102
pop of  15 C 2s           1.17906
pop of  15 C 2px          0.99878
pop of  15 C 2py          0.91531
pop of  15 C 2pz          0.95550
pop of  16 C 1s           1.99084
pop of  16 C 2s           1.14014
pop of  16 C 2px          0.99749
pop of  16 C 2py          0.93178
pop of  16 C 2pz          0.93475
pop of  17 C 1s           1.99034
pop of  17 C 2s           1.05251
pop of  17 C 2px          1.01379
pop of  17 C 2py          0.97948
pop of  17 C 2pz          0.98368
pop of  18 C 1s           1.99089
pop of  18 C 2s           1.17283
pop of  18 C 2px          0.96442
pop of  18 C 2py          0.96811
pop of  18 C 2pz          1.00559
pop of  19 C 1s           1.99037
pop of  19 C 2s           1.06391
pop of  19 C 2px          1.04249
pop of  19 C 2py          1.00584
pop of  19 C 2pz          1.04903
pop of  20 C 1s           1.99172
pop of  20 C 2s           1.25708
pop of  20 C 2px          0.96725
pop of  20 C 2py          0.94667
pop of  20 C 2pz          0.90050
pop of  21 C 1s           1.99196
pop of  21 C 2s           1.22019
pop of  21 C 2px          0.91353
pop of  21 C 2py          0.94842
pop of  21 C 2pz          0.93225
pop of  22 H 1s           0.86867
pop of  23 H 1s           0.88939
pop of  24 H 1s           0.98300
pop of  25 H 1s           0.90468
pop of  26 H 1s           0.88099
pop of  27 H 1s           0.94790
pop of  28 H 1s           0.89254
pop of  29 H 1s           0.89815
pop of  30 H 1s           0.90207
pop of  31 H 1s           0.91912
pop of  32 H 1s           0.90305
pop of  33 H 1s           0.88957
pop of  34 H 1s           0.94411
pop of  35 H 1s           0.94963
 ** Mulliken atomic charges  **
charge of    0C =      0.03305
charge of    1C =     -0.00879
charge of    2C =     -0.16629
charge of    3C =     -0.17306
charge of    4C =     -0.03041
charge of    5C =     -0.08246
charge of    6C =     -0.12780
charge of    7C =     -0.03234
charge of    8C =      0.02411
charge of    9C =     -0.01730
charge of   10C =     -0.10795
charge of   11C =     -0.06917
charge of   12C =      0.00527
charge of   13C =     -0.02484
charge of   14C =     -0.07163
charge of   15C =     -0.03967
charge of   16C =      0.00501
charge of   17C =     -0.01979
charge of   18C =     -0.10184
charge of   19C =     -0.15165
charge of   20C =     -0.06321
charge of   21C =     -0.00636
charge of   22H =      0.13133
charge of   23H =      0.11061
charge of   24H =      0.01700
charge of   25H =      0.09532
charge of   26H =      0.11901
charge of   27H =      0.05210
charge of   28H =      0.10746
charge of   29H =      0.10185
charge of   30H =      0.09793
charge of   31H =      0.08088
charge of   32H =      0.09695
charge of   33H =      0.11043
charge of   34H =      0.05589
charge of   35H =      0.05037
Dipole moment(X, Y, Z, Debye): -0.40802, -0.93261, -0.22521
nelec by numeric integration = 145.99999639970528
    CPU time for vxc     37.67 sec, wall time     15.96 sec
E1 = -4100.663985865048  Ecoul = 1895.3464402063603  Exc = -124.60895127947119
nelec by numeric integration = 145.99999639970528
    CPU time for vxc     38.02 sec, wall time     15.81 sec
E1 = -4100.663985865048  Ecoul = 1895.3464402063607  Exc = -124.60895127947117
