System: uname_result(system='Linux', node='cosmopc18', release='5.15.0-97-generic', version='#107-Ubuntu SMP Wed Feb 7 13:26:48 UTC 2024', machine='x86_64')  Threads 4
Python 3.11.8 (main, Feb 26 2024, 21:39:34) [GCC 11.2.0]
numpy 1.26.4  scipy 1.11.4
Date: Tue Apr  9 14:41:23 2024
PySCF version 2.3.0
PySCF path  /home/saade/miniconda3/envs/tutorial/lib/python3.11/site-packages/pyscf

[ENV] PYSCFAD_BACKEND torch
[CONFIG] conf_file None
[INPUT] verbose = 5
[INPUT] max_memory = 4000 
[INPUT] num. atoms = 36
[INPUT] num. electrons = 146
[INPUT] charge = 0
[INPUT] spin (= nelec alpha-beta = 2S) = 0
[INPUT] symmetry False subgroup None
[INPUT] Mole.unit = angstrom
[INPUT] Symbol           X                Y                Z      unit          X                Y                Z       unit  Magmom
[INPUT]  1 C      0.175263000000   3.679462000000   0.609034000000 AA    0.331199069770   6.953175465744   1.150907460548 Bohr   0.0
[INPUT]  2 C      0.031775000000   3.547418000000  -0.859982000000 AA    0.060046047608   6.703648469352  -1.625130452056 Bohr   0.0
[INPUT]  3 C     -0.042543000000   4.766567000000   1.292489000000 AA   -0.080394618517   9.007506184390   2.442450229013 Bohr   0.0
[INPUT]  4 C     -0.027976000000   2.317099000000   1.328379000000 AA   -0.052866978061   4.378682513504   2.510272499624 Bohr   0.0
[INPUT]  5 C      0.085377000000   5.014767000000  -1.312025000000 AA    0.161339147337   9.476536208507  -2.479367918582 Bohr   0.0
[INPUT]  6 C      0.063482000000   2.430929000000  -1.424870000000 AA    0.119963593840   4.593790038263  -2.692614063109 Bohr   0.0
[INPUT]  7 C     -0.065910000000   6.179485000000  -0.628937000000 AA   -0.124551848870  11.677534240858  -1.188518679606 Bohr   0.0
[INPUT]  8 C      0.034299000000   6.333186000000   0.768741000000 AA    0.064815716346  11.967987035930   1.452709950724 Bohr   0.0
[INPUT]  9 C     -0.058379000000   1.160567000000   0.630449000000 AA   -0.110320321426   2.193153779208   1.191375945506 Bohr   0.0
[INPUT] 10 C     -0.158325000000   1.093545000000  -0.746688000000 AA   -0.299190888672   2.066500554888  -1.411035820499 Bohr   0.0
[INPUT] 11 C     -0.141426000000  -0.093634000000   1.513121000000 AA   -0.267256406893  -0.176942615948   2.859384283328 Bohr   0.0
[INPUT] 12 C      0.143270000000  -0.085564000000  -1.367468000000 AA    0.270741061866  -0.161692526122  -2.584140004107 Bohr   0.0
[INPUT] 13 C      0.057456000000  -1.289436000000   0.768399000000 AA    0.108576104213  -2.436680895155   1.452063664390 Bohr   0.0
[INPUT] 14 C     -0.180604000000  -1.214428000000  -0.728839000000 AA   -0.341292097001  -2.294936318003  -1.377306098902 Bohr   0.0
[INPUT] 15 C     -0.222107000000  -2.509639000000   1.292430000000 AA   -0.419721400349  -4.742530381527   2.442338735172 Bohr   0.0
[INPUT] 16 C     -0.008800000000  -2.503024000000  -1.331754000000 AA   -0.016629589896  -4.730029843213  -2.516650325294 Bohr   0.0
[INPUT] 17 C     -0.264502000000  -3.593427000000   0.916964000000 AA   -0.499836339400  -6.790592878617   1.732810826086 Bohr   0.0
[INPUT] 18 C      0.067155000000  -3.673923000000  -0.618760000000 AA    0.126904557895  -6.942708272740  -1.169286936836 Bohr   0.0
[INPUT] 19 C     -0.082166000000  -4.791744000000   1.436109000000 AA   -0.155271236751  -9.055083819028   2.713852695023 Bohr   0.0
[INPUT] 20 C     -0.067111000000  -4.816092000000  -1.500312000000 AA   -0.126821409946  -9.101094870709  -2.835178781398 Bohr   0.0
[INPUT] 21 C      0.089000000000  -6.185535000000   0.909764000000 AA    0.168185625086 -11.688967083912   1.719204797989 Bohr   0.0
[INPUT] 22 C     -0.060507000000  -6.054597000000  -0.699400000000 AA   -0.114341658619 -11.441530124613  -1.321674451521 Bohr   0.0
[INPUT] 23 H     -0.006706000000   5.157091000000   2.574717000000 AA   -0.012672503391   9.745489589459   4.865509978262 Bohr   0.0
[INPUT] 24 H     -0.004619000000   2.182762000000   2.554563000000 AA   -0.008728644969   4.124822375108   4.827424437947 Bohr   0.0
[INPUT] 25 H     -0.128580000000   4.873553000000  -2.400756000000 AA   -0.242980985097   9.209680423552  -4.536771331906 Bohr   0.0
[INPUT] 26 H     -0.010308000000   2.349476000000  -2.585381000000 AA   -0.019479296892   4.439866176239  -4.885662017654 Bohr   0.0
[INPUT] 27 H      0.134326000000   7.033428000000  -1.154341000000 AA    0.253839351408  13.291252636847  -2.181388344357 Bohr   0.0
[INPUT] 28 H     -0.034259000000   6.888371000000   1.354239000000 AA   -0.064740127301  13.017134634396   2.559140817205 Bohr   0.0
[INPUT] 29 H     -0.016803000000   0.014674000000   2.333877000000 AA   -0.031753068071   0.027729841152   4.410388338422 Bohr   0.0
[INPUT] 30 H      0.068241000000   0.110809000000  -2.287329000000 AA    0.128956800466   0.209398662137  -4.322425366775 Bohr   0.0
[INPUT] 31 H     -0.086125000000  -2.503779000000   2.441133000000 AA   -0.162752662478  -4.731456586437   4.613072803638 Bohr   0.0
[INPUT] 32 H     -0.264169000000  -2.542057000000  -2.413200000000 AA   -0.499207060600  -4.803791523033  -4.560287083800 Bohr   0.0
[INPUT] 33 H     -0.171284000000  -4.929869000000   2.375397000000 AA   -0.323679849520  -9.316102239983   4.488849767113 Bohr   0.0
[INPUT] 34 H      0.004689000000  -4.949212000000  -2.593429000000 AA    0.008860925798  -9.352655212411  -4.900870533505 Bohr   0.0
[INPUT] 35 H      0.105470000000  -6.989013000000   1.283759000000 AA    0.199309414358 -13.207320451025   2.425952919946 Bohr   0.0
[INPUT] 36 H      0.152965000000  -6.981244000000  -1.277217000000 AA    0.289061956644 -13.192639168763  -2.413590331639 Bohr   0.0
[INPUT] ---------------- BASIS SET ---------------- 
[INPUT] l, kappa, [nprim/nctr], expnt,             c_1 c_2 ...
[INPUT] H
[INPUT] 0    0    [3    /1   ]  3.42525091        0.15432897
                                0.62391373        0.53532814
                                0.1688554         0.44463454
[INPUT] C
[INPUT] 0    0    [3    /1   ]  71.616837         0.15432897
                                13.045096         0.53532814
                                3.5305122         0.44463454
[INPUT] 0    0    [3    /1   ]  2.9412494         -0.09996723
                                0.6834831         0.39951283
                                0.2222899         0.70011547
[INPUT] 1    0    [3    /1   ]  2.9412494         0.15591627
                                0.6834831         0.60768372
                                0.2222899         0.39195739

nuclear repulsion = 1497.24010250067
number of shells = 80
number of NR pGTOs = 372
number of NR cGTOs = 124
basis = sto3g
ecp = {}
CPU time:     43850.04
atom C rad-grids = 99, ang-grids = [ 50  50  50  50  50  50  50  50  50  50  50  50  50  50  50  50  50  50
  50  50  50  50  50  50  50  50  50  50  50  50  50  86  86  86  86  86
  86  86  86  86  86  86  86 434 434 434 434 434 434 434 434 434 590 590
 590 590 590 590 590 590 590 590 590 590 590 590 590 590 590 590 590 590
 590 590 590 590 590 590 590 434 434 434 434 434 434 434 434 434 434 434
 434 434 434 434 434 434 434 434 434]
atom H rad-grids = 99, ang-grids = [ 50  50  50  50  50  50  50  50  50  50  50  50  50  50  50  50  50  50
  50  50  50  50  50  50  50  50  50  50  86  86  86  86  86  86  86 434
 434 434 434 434 434 434 434 590 590 590 590 590 590 590 590 590 590 590
 590 590 590 590 590 590 590 590 590 590 590 590 590 590 590 434 434 434
 434 434 434 434 434 434 434 434 434 434 434 434 434 434 434 434 434 434
 434 434 434 434 434 434 434 434 434]
tot_boxes 5270, boxes in each direction [ 8 29 15]
Padding 0 grids
tot grids = 1157832


******** <class 'pyscf.dft.rks.RKS'> ********
method = RKS
initial guess = minao
damping factor = 0
level_shift factor = 0
DIIS = <class 'pyscf.scf.diis.CDIIS'>
diis_start_cycle = 1
diis_space = 8
SCF conv_tol = 1e-10
SCF conv_tol_grad = None
SCF max_cycles = 50
direct_scf = True
direct_scf_tol = 1e-13
chkfile to save SCF result = /home/saade/mlelec/tutorials/tmpe71xcw8s
max_memory 4000 MB (current use 638 MB)
XC library pyscf.dft.libxc version 6.1.0
    S. Lehtola, C. Steigemann, M. J.T. Oliveira, and M. A.L. Marques.,  SoftwareX 7, 1–5 (2018)
XC functionals = b3lypg
    P. J. Stephens, F. J. Devlin, C. F. Chabalowski, and M. J. Frisch.,  J. Phys. Chem. 98, 11623 (1994)
radial grids: 
    Treutler-Ahlrichs [JCP 102, 346 (1995); DOI:10.1063/1.469408] (M4) radial grids
    
becke partition: Becke, JCP 88, 2547 (1988); DOI:10.1063/1.454033
pruning grids: <function nwchem_prune at 0x7f9db5616ca0>
grids dens level: 3
symmetrized grids: False
atomic radii adjust function: <function treutler_atomic_radii_adjust at 0x7f9db5617380>
User specified grid scheme (99, 590)
small_rho_cutoff = 1e-07
Set gradient conv threshold to 1e-05
Initial guess from minao.
nelec by numeric integration = 145.26767965751145
    CPU time for vxc     37.97 sec, wall time     16.05 sec
E1 = -4094.2515575024604  Ecoul = 1881.825130558745  Exc = -126.07839204511299
init E= -841.264716488154
cond(S) = 25.043660486497895
    CPU time for initialize scf     47.65 sec, wall time     18.42 sec
  HOMO = -0.202465313668503  LUMO = -0.163533137027545
  mo_energy =
[-1.01562914e+01 -1.01522708e+01 -1.01318933e+01 -1.01235774e+01
 -1.01093129e+01 -1.01090549e+01 -1.01080948e+01 -1.01079041e+01
 -1.01075768e+01 -1.01068315e+01 -1.01062320e+01 -1.01046369e+01
 -1.00998027e+01 -1.00996019e+01 -1.00965575e+01 -1.00914361e+01
 -1.00859211e+01 -1.00840315e+01 -1.00827791e+01 -1.00789350e+01
 -1.00748364e+01 -1.00615644e+01 -1.11079994e+00 -1.07120965e+00
 -1.02253665e+00 -9.67734615e-01 -9.62378577e-01 -9.31149441e-01
 -9.22405368e-01 -8.85185543e-01 -8.68238042e-01 -8.31958944e-01
 -8.05887873e-01 -7.84202281e-01 -7.41337490e-01 -7.22664093e-01
 -6.97663592e-01 -6.72171975e-01 -6.68919868e-01 -6.44885394e-01
 -6.19839650e-01 -5.83965785e-01 -5.74965887e-01 -5.66750529e-01
 -5.45686530e-01 -5.34098935e-01 -5.18736711e-01 -5.12641190e-01
 -5.01456112e-01 -4.86541994e-01 -4.83681466e-01 -4.70955393e-01
 -4.56309600e-01 -4.53513474e-01 -4.47316700e-01 -4.36537134e-01
 -4.27712359e-01 -4.08894175e-01 -4.05331318e-01 -3.99621821e-01
 -3.70724550e-01 -3.62569353e-01 -3.59879734e-01 -3.51996734e-01
 -3.45007730e-01 -3.36211078e-01 -3.16014859e-01 -3.11144324e-01
 -2.95442339e-01 -2.80005677e-01 -2.70516986e-01 -2.36136830e-01
 -2.02465314e-01 -1.63533137e-01 -1.19484484e-01 -7.49318556e-02
 -6.44471943e-02 -2.75327460e-02 -6.32388088e-03  1.03633194e-02
  1.28489807e-02  6.20076185e-02  8.82906376e-02  1.15321168e-01
  1.29762545e-01  1.34630306e-01  1.50480018e-01  1.58172378e-01
  1.75363773e-01  1.83874989e-01  2.17588305e-01  2.35204090e-01
  2.44940791e-01  2.59741192e-01  2.65076012e-01  2.81376560e-01
  2.95555258e-01  3.08630233e-01  3.30913360e-01  3.36572225e-01
  3.67936566e-01  3.84303104e-01  3.97974611e-01  4.13006945e-01
  4.16810855e-01  4.32763607e-01  4.34685560e-01  4.63122830e-01
  4.80212056e-01  5.01220436e-01  5.14470114e-01  5.30894038e-01
  5.64889504e-01  5.67691271e-01  5.79143988e-01  5.98610876e-01
  6.34994924e-01  6.61912511e-01  6.69245326e-01  6.75452462e-01
  7.45208366e-01  7.63390931e-01  8.31721824e-01  9.40789624e-01]
nelec by numeric integration = 146.00000305349815
    CPU time for vxc     37.62 sec, wall time     15.58 sec
E1 = -4108.7198189462415  Ecoul = 1900.6939018105356  Exc = -124.7263022892046
cycle= 1 E= -835.512116924236  delta_E= 5.75  |g|= 0.283  |ddm|= 9.27
    CPU time for cycle= 1     38.06 sec, wall time     15.65 sec
  HOMO = -0.0810920135298021  LUMO = -0.0142581143767525
  mo_energy =
[-10.08923246 -10.02800188 -10.02171229 -10.02144272 -10.01674064
 -10.0159319  -10.0088591  -10.00867419 -10.00161126 -10.00063936
  -9.99956002  -9.99649143  -9.98485824  -9.98001537  -9.9754044
  -9.97202443  -9.95028826  -9.94707987  -9.9467653   -9.94170115
  -9.94147081  -9.93854133  -0.83907659  -0.81619786  -0.78180374
  -0.76159655  -0.75043041  -0.73203146  -0.72676464  -0.69501041
  -0.69042808  -0.6644652   -0.64141012  -0.63274691  -0.60175196
  -0.58394994  -0.55473885  -0.54022218  -0.53705869  -0.51169861
  -0.49939042  -0.46462529  -0.46038637  -0.45386993  -0.44553515
  -0.42287031  -0.41163078  -0.40361771  -0.39225599  -0.37863492
  -0.37283947  -0.35828834  -0.35560545  -0.34262299  -0.33269743
  -0.3307814   -0.32292492  -0.30959645  -0.30078589  -0.28796847
  -0.2843418   -0.27237111  -0.26034785  -0.2485241   -0.23760361
  -0.22752063  -0.21534081  -0.20495174  -0.18583888  -0.18231992
  -0.17283273  -0.12897754  -0.08109201  -0.01425811   0.02170374
   0.05351086   0.08822747   0.12118097   0.15037677   0.15620004
   0.1748882    0.21181299   0.23320715   0.25272495   0.28028119
   0.28489159   0.29710211   0.31315355   0.31556749   0.33099371
   0.35039725   0.37115824   0.39092861   0.39572699   0.41695266
   0.43282035   0.44506619   0.44782659   0.47529947   0.4845318
   0.51375069   0.53648552   0.54498385   0.56564763   0.58204621
   0.5900954    0.59201017   0.61977661   0.62825148   0.64722371
   0.66592397   0.68930066   0.70650324   0.72847304   0.74025988
   0.74300222   0.76604204   0.80770083   0.8229712    0.84171774
   0.90255619   0.92601305   0.9818304    1.1358776 ]
nelec by numeric integration = 146.00000301379083
    CPU time for vxc     38.14 sec, wall time     15.72 sec
E1 = -4103.754980683635  Ecoul = 1895.6330134534567  Exc = -124.598263174837
cycle= 2 E= -835.48012790434  delta_E= 0.032  |g|= 0.412  |ddm|= 1.14
    CPU time for cycle= 2     38.73 sec, wall time     15.81 sec
  HOMO = -0.0998046554288994  LUMO = -0.0279884442356515
  mo_energy =
[-10.04565332 -10.03214807 -10.02522503 -10.02118754 -10.02115568
 -10.01993471 -10.01710723 -10.0158851  -10.01136147 -10.00998248
 -10.00923891 -10.0081005  -10.0075802  -10.00437174 -10.00423676
 -10.00167917  -9.99899806  -9.99708458  -9.99154598  -9.98508559
  -9.98115542  -9.97352978  -0.86334684  -0.83576355  -0.80449367
  -0.76677829  -0.76196067  -0.73993768  -0.73749629  -0.70811137
  -0.69778605  -0.67090827  -0.65862144  -0.63749496  -0.60356071
  -0.59371815  -0.56907382  -0.54957429  -0.54706058  -0.52607385
  -0.50873251  -0.47827103  -0.47226179  -0.46064185  -0.45033189
  -0.43318377  -0.42130642  -0.41770371  -0.4049553   -0.3897311
  -0.38416045  -0.37547044  -0.36466195  -0.36102756  -0.3476925
  -0.3467746   -0.33708147  -0.31978218  -0.30749693  -0.30379656
  -0.28144535  -0.27539312  -0.26859759  -0.2647535   -0.2510477
  -0.23989105  -0.22780374  -0.21620311  -0.19959206  -0.19823724
  -0.17247043  -0.13865212  -0.09980466  -0.02798844   0.0147064
   0.06177796   0.07554159   0.10948919   0.13377992   0.14863945
   0.15644255   0.20086648   0.21651279   0.25111936   0.26844272
   0.27864801   0.29314343   0.30070428   0.31151759   0.32926703
   0.35407552   0.36866446   0.37654644   0.39157308   0.39685795
   0.42453322   0.43828357   0.44635286   0.46686451   0.47765628
   0.51011      0.5268878    0.53444878   0.5492626    0.56303504
   0.57261597   0.57933921   0.59230328   0.62127928   0.62997041
   0.65082481   0.67232541   0.70029546   0.70520039   0.72244473
   0.74455696   0.77673954   0.78605048   0.80159672   0.8171737
   0.88345938   0.90218448   0.95067017   1.09576195]
nelec by numeric integration = 146.00000302255572
    CPU time for vxc     39.05 sec, wall time     16.33 sec
E1 = -4105.385454949085  Ecoul = 1897.2328461703423  Exc = -124.62292877219222
cycle= 3 E= -835.53543505026  delta_E= -0.0553  |g|= 0.168  |ddm|= 0.929
    CPU time for cycle= 3     39.52 sec, wall time     16.40 sec
  HOMO = -0.105109225394721  LUMO = -0.037930755851602
  mo_energy =
[-1.00509456e+01 -1.00383621e+01 -1.00364423e+01 -1.00341700e+01
 -1.00327233e+01 -1.00307886e+01 -1.00293996e+01 -1.00285006e+01
 -1.00266906e+01 -1.00232502e+01 -1.00212154e+01 -1.00199171e+01
 -1.00183102e+01 -1.00123659e+01 -1.00120258e+01 -1.00113510e+01
 -1.00080698e+01 -1.00039938e+01 -1.00027323e+01 -9.99972575e+00
 -9.98820410e+00 -9.98686880e+00 -8.71999926e-01 -8.45818420e-01
 -8.08912288e-01 -7.74007155e-01 -7.68663084e-01 -7.50575989e-01
 -7.39683860e-01 -7.16482300e-01 -7.05529766e-01 -6.75630575e-01
 -6.54432178e-01 -6.50132639e-01 -6.11208603e-01 -6.04602939e-01
 -5.74675148e-01 -5.53585563e-01 -5.50570087e-01 -5.28223553e-01
 -5.14812951e-01 -4.82149679e-01 -4.77566037e-01 -4.70198958e-01
 -4.55407263e-01 -4.38640706e-01 -4.24303911e-01 -4.22331765e-01
 -4.10207212e-01 -3.94815619e-01 -3.89064344e-01 -3.81250622e-01
 -3.72889884e-01 -3.66319922e-01 -3.54846014e-01 -3.52424389e-01
 -3.45917345e-01 -3.26607545e-01 -3.16520640e-01 -3.10531871e-01
 -2.88372215e-01 -2.85309246e-01 -2.74484844e-01 -2.71022891e-01
 -2.54860417e-01 -2.50085799e-01 -2.35066357e-01 -2.19921620e-01
 -2.06965511e-01 -2.00656210e-01 -1.84422194e-01 -1.45209146e-01
 -1.05109225e-01 -3.79307559e-02  7.37824614e-03  5.04147177e-02
  6.67709372e-02  1.05064576e-01  1.28095574e-01  1.40829518e-01
  1.48675713e-01  1.95959896e-01  2.11340250e-01  2.44953992e-01
  2.66598326e-01  2.70973606e-01  2.89041390e-01  2.91165373e-01
  3.03476791e-01  3.13596911e-01  3.48095747e-01  3.63741879e-01
  3.71171704e-01  3.90649904e-01  3.96687027e-01  4.17762323e-01
  4.31050641e-01  4.36108220e-01  4.58522676e-01  4.71691248e-01
  5.04681099e-01  5.18064066e-01  5.33173500e-01  5.43371435e-01
  5.53617042e-01  5.67796676e-01  5.70275265e-01  5.95258338e-01
  6.15110569e-01  6.25626831e-01  6.45008455e-01  6.63341281e-01
  6.95325688e-01  7.02462840e-01  7.16028693e-01  7.33396711e-01
  7.69054930e-01  7.76098376e-01  7.92760306e-01  8.08720264e-01
  8.74858555e-01  8.91888431e-01  9.59677559e-01  1.08601253e+00]
nelec by numeric integration = 146.00000302148706
    CPU time for vxc     38.02 sec, wall time     15.93 sec
E1 = -4106.502397555767  Ecoul = 1898.3567459324283  Exc = -124.63631122264081
cycle= 4 E= -835.541860345304  delta_E= -0.00643  |g|= 0.106  |ddm|= 0.461
    CPU time for cycle= 4     38.56 sec, wall time     16.01 sec
  HOMO = -0.105544753439182  LUMO = -0.036064304555844
  mo_energy =
[-1.00472553e+01 -1.00307147e+01 -1.00267201e+01 -1.00262266e+01
 -1.00256192e+01 -1.00251179e+01 -1.00248073e+01 -1.00240182e+01
 -1.00239927e+01 -1.00226687e+01 -1.00202213e+01 -1.00172486e+01
 -1.00163186e+01 -1.00152717e+01 -1.00142443e+01 -1.00136483e+01
 -1.00094572e+01 -1.00072025e+01 -1.00048915e+01 -1.00033164e+01
 -1.00027665e+01 -9.99985557e+00 -8.67462487e-01 -8.41820907e-01
 -8.08227744e-01 -7.70872198e-01 -7.68666697e-01 -7.47835916e-01
 -7.41886746e-01 -7.14344091e-01 -7.05796176e-01 -6.75266619e-01
 -6.59820826e-01 -6.47095409e-01 -6.10741136e-01 -6.00347700e-01
 -5.72731966e-01 -5.52790270e-01 -5.50490764e-01 -5.29258609e-01
 -5.14443099e-01 -4.81960709e-01 -4.75699547e-01 -4.67204625e-01
 -4.55326456e-01 -4.37386574e-01 -4.24717364e-01 -4.21879180e-01
 -4.09471300e-01 -3.94505110e-01 -3.87946636e-01 -3.79827085e-01
 -3.72003708e-01 -3.64291072e-01 -3.52276236e-01 -3.51109751e-01
 -3.42637954e-01 -3.25002333e-01 -3.14051864e-01 -3.09534161e-01
 -2.88675129e-01 -2.86054493e-01 -2.73789989e-01 -2.70404463e-01
 -2.55590578e-01 -2.47243044e-01 -2.33716036e-01 -2.21896273e-01
 -2.05437439e-01 -2.02295781e-01 -1.84826712e-01 -1.45139455e-01
 -1.05544753e-01 -3.60643046e-02  7.24960785e-03  5.22011637e-02
  6.80951100e-02  1.03699050e-01  1.28419649e-01  1.39823613e-01
  1.50394119e-01  1.96970103e-01  2.13054275e-01  2.46969023e-01
  2.66391219e-01  2.73770771e-01  2.88961276e-01  2.94146043e-01
  3.05432930e-01  3.09012676e-01  3.51226256e-01  3.64597651e-01
  3.72617435e-01  3.91114138e-01  3.94670086e-01  4.19653800e-01
  4.31567992e-01  4.38438117e-01  4.60478179e-01  4.72615438e-01
  5.04210171e-01  5.18920247e-01  5.32010253e-01  5.43090995e-01
  5.57373819e-01  5.68016374e-01  5.73224382e-01  5.91289798e-01
  6.16691115e-01  6.26899227e-01  6.47111292e-01  6.66193497e-01
  6.96701456e-01  7.01025883e-01  7.16835886e-01  7.37225031e-01
  7.66614747e-01  7.75716830e-01  7.95432509e-01  8.13587243e-01
  8.78928142e-01  8.94755722e-01  9.51181761e-01  1.09181548e+00]
nelec by numeric integration = 146.00000303172828
    CPU time for vxc     38.35 sec, wall time     15.96 sec
E1 = -4105.794708746633  Ecoul = 1897.6441392766583  Exc = -124.63563518941946
cycle= 5 E= -835.546102158719  delta_E= -0.00424  |g|= 0.0367  |ddm|= 0.261
    CPU time for cycle= 5     38.80 sec, wall time     16.03 sec
  HOMO = -0.104708537835646  LUMO = -0.0356813894079475
  mo_energy =
[-1.00497874e+01 -1.00364483e+01 -1.00291257e+01 -1.00280459e+01
 -1.00253486e+01 -1.00245965e+01 -1.00242075e+01 -1.00234896e+01
 -1.00225788e+01 -1.00220644e+01 -1.00216415e+01 -1.00207672e+01
 -1.00152147e+01 -1.00135339e+01 -1.00133626e+01 -1.00125472e+01
 -1.00103314e+01 -1.00034685e+01 -1.00024500e+01 -1.00006303e+01
 -1.00004861e+01 -9.99534550e+00 -8.69015517e-01 -8.41951885e-01
 -8.07374046e-01 -7.71343365e-01 -7.68755668e-01 -7.48433632e-01
 -7.40930537e-01 -7.13803978e-01 -7.05218427e-01 -6.75409889e-01
 -6.57581938e-01 -6.47553786e-01 -6.10584975e-01 -6.01234184e-01
 -5.72556384e-01 -5.52372877e-01 -5.51386476e-01 -5.28129496e-01
 -5.13996452e-01 -4.81326944e-01 -4.76196321e-01 -4.67837732e-01
 -4.55790250e-01 -4.37083903e-01 -4.24089787e-01 -4.21887432e-01
 -4.09607644e-01 -3.94027077e-01 -3.88712070e-01 -3.80014291e-01
 -3.72380519e-01 -3.64458731e-01 -3.52147198e-01 -3.51496092e-01
 -3.42598050e-01 -3.24704353e-01 -3.13924367e-01 -3.09259751e-01
 -2.89171431e-01 -2.86077076e-01 -2.74160354e-01 -2.70129050e-01
 -2.55092245e-01 -2.47690879e-01 -2.34294336e-01 -2.20960330e-01
 -2.05433788e-01 -2.00936234e-01 -1.84932495e-01 -1.45385856e-01
 -1.04708538e-01 -3.56813894e-02  7.38368327e-03  5.14230984e-02
  6.77968743e-02  1.05087193e-01  1.29449310e-01  1.39421166e-01
  1.50112257e-01  1.97396776e-01  2.13500445e-01  2.45499836e-01
  2.67604714e-01  2.73948072e-01  2.90649111e-01  2.93046618e-01
  3.05928225e-01  3.10368503e-01  3.49974088e-01  3.63792077e-01
  3.72316388e-01  3.91109637e-01  3.95521126e-01  4.20195378e-01
  4.31100693e-01  4.37998465e-01  4.60337057e-01  4.72711883e-01
  5.04762198e-01  5.18427875e-01  5.32918197e-01  5.42972865e-01
  5.56652383e-01  5.69105471e-01  5.71983437e-01  5.93623563e-01
  6.16429305e-01  6.25836861e-01  6.45698700e-01  6.66410875e-01
  6.95442791e-01  7.02063014e-01  7.16796034e-01  7.37275719e-01
  7.68117488e-01  7.76307930e-01  7.95940569e-01  8.11755050e-01
  8.79275932e-01  8.94843210e-01  9.54564954e-01  1.09041280e+00]
nelec by numeric integration = 146.00000302662184
    CPU time for vxc     37.72 sec, wall time     15.87 sec
E1 = -4105.9927768113175  Ecoul = 1897.8400721041755  Exc = -124.6340077773317
cycle= 6 E= -835.546609983799  delta_E= -0.000508  |g|= 0.0111  |ddm|= 0.0805
    CPU time for cycle= 6     38.17 sec, wall time     15.95 sec
  HOMO = -0.104584430419431  LUMO = -0.0352345615617628
  mo_energy =
[-1.00482175e+01 -1.00342063e+01 -1.00281997e+01 -1.00261278e+01
 -1.00245436e+01 -1.00241677e+01 -1.00237870e+01 -1.00235341e+01
 -1.00232594e+01 -1.00208145e+01 -1.00195436e+01 -1.00189627e+01
 -1.00145939e+01 -1.00141829e+01 -1.00124394e+01 -1.00115133e+01
 -1.00098418e+01 -1.00043593e+01 -1.00013735e+01 -1.00006497e+01
 -1.00003041e+01 -9.99601879e+00 -8.67806014e-01 -8.41612885e-01
 -8.07307581e-01 -7.70449609e-01 -7.68140921e-01 -7.47673946e-01
 -7.40590636e-01 -7.13787457e-01 -7.04800869e-01 -6.74775875e-01
 -6.57580494e-01 -6.46958134e-01 -6.09986405e-01 -6.00642073e-01
 -5.72248641e-01 -5.51900965e-01 -5.50640157e-01 -5.28169766e-01
 -5.13775807e-01 -4.81023506e-01 -4.75711812e-01 -4.67218323e-01
 -4.55100268e-01 -4.36822790e-01 -4.23958104e-01 -4.21393471e-01
 -4.09160154e-01 -3.93770867e-01 -3.87850475e-01 -3.79517302e-01
 -3.71663248e-01 -3.64057420e-01 -3.52109075e-01 -3.50947009e-01
 -3.42637299e-01 -3.24608932e-01 -3.13691477e-01 -3.09023096e-01
 -2.88198647e-01 -2.85499573e-01 -2.73321735e-01 -2.69978292e-01
 -2.54626446e-01 -2.47237115e-01 -2.33598145e-01 -2.20716139e-01
 -2.05103936e-01 -2.01169960e-01 -1.84225920e-01 -1.44732902e-01
 -1.04584430e-01 -3.52345616e-02  8.02155360e-03  5.23837862e-02
  6.84587334e-02  1.05161441e-01  1.29363180e-01  1.40499290e-01
  1.50771889e-01  1.97396252e-01  2.13262424e-01  2.46755405e-01
  2.67405166e-01  2.74072110e-01  2.90692449e-01  2.93621588e-01
  3.05897444e-01  3.11102390e-01  3.50835351e-01  3.64659775e-01
  3.72767892e-01  3.91634195e-01  3.95510913e-01  4.20195307e-01
  4.31876503e-01  4.38483897e-01  4.60810609e-01  4.73155249e-01
  5.05123269e-01  5.19369962e-01  5.33337964e-01  5.43673606e-01
  5.57329883e-01  5.69089345e-01  5.72969181e-01  5.93352580e-01
  6.17010475e-01  6.26597518e-01  6.46781911e-01  6.66743774e-01
  6.96390017e-01  7.02425669e-01  7.17527505e-01  7.37520324e-01
  7.68525429e-01  7.76579944e-01  7.95965210e-01  8.12726206e-01
  8.79406456e-01  8.94933540e-01  9.54397429e-01  1.09161795e+00]
nelec by numeric integration = 146.00000302652165
    CPU time for vxc     38.46 sec, wall time     15.94 sec
E1 = -4105.922983181258  Ecoul = 1897.7693075088932  Exc = -124.63308042740064
cycle= 7 E= -835.546653599091  delta_E= -4.36e-05  |g|= 0.0031  |ddm|= 0.0216
    CPU time for cycle= 7     39.07 sec, wall time     16.03 sec
  HOMO = -0.104581417664714  LUMO = -0.0352059729023857
  mo_energy =
[-1.00481686e+01 -1.00340618e+01 -1.00278601e+01 -1.00262541e+01
 -1.00246294e+01 -1.00243225e+01 -1.00238174e+01 -1.00236171e+01
 -1.00229001e+01 -1.00204880e+01 -1.00196876e+01 -1.00188911e+01
 -1.00146934e+01 -1.00141668e+01 -1.00125502e+01 -1.00111753e+01
 -1.00100892e+01 -1.00041296e+01 -1.00016499e+01 -1.00005630e+01
 -1.00001030e+01 -9.99573661e+00 -8.67906861e-01 -8.41522893e-01
 -8.07191985e-01 -7.70561226e-01 -7.68082490e-01 -7.47709949e-01
 -7.40531571e-01 -7.13673178e-01 -7.04739600e-01 -6.74763162e-01
 -6.57576665e-01 -6.46919099e-01 -6.09976097e-01 -6.00630033e-01
 -5.72212860e-01 -5.51907496e-01 -5.50675849e-01 -5.28086388e-01
 -5.13703881e-01 -4.80998139e-01 -4.75729152e-01 -4.67215646e-01
 -4.55026355e-01 -4.36837638e-01 -4.23876523e-01 -4.21372175e-01
 -4.09158974e-01 -3.93736818e-01 -3.87883018e-01 -3.79533500e-01
 -3.71666547e-01 -3.64091233e-01 -3.52007849e-01 -3.50958277e-01
 -3.42545403e-01 -3.24533693e-01 -3.13636767e-01 -3.08948773e-01
 -2.88246611e-01 -2.85346240e-01 -2.73363844e-01 -2.69968577e-01
 -2.54610531e-01 -2.47195548e-01 -2.33605628e-01 -2.20648410e-01
 -2.05044467e-01 -2.01097267e-01 -1.84167428e-01 -1.44712144e-01
 -1.04581418e-01 -3.52059729e-02  8.08003958e-03  5.24096966e-02
  6.85193005e-02  1.05226499e-01  1.29490939e-01  1.40455591e-01
  1.50719215e-01  1.97475112e-01  2.13348636e-01  2.46675098e-01
  2.67554405e-01  2.74142876e-01  2.90688997e-01  2.93596986e-01
  3.05990312e-01  3.11293616e-01  3.50777567e-01  3.64635255e-01
  3.72842210e-01  3.91605849e-01  3.95531420e-01  4.20295351e-01
  4.31952067e-01  4.38534417e-01  4.60832868e-01  4.73191105e-01
  5.05215504e-01  5.19374224e-01  5.33344694e-01  5.43648508e-01
  5.57274948e-01  5.69125864e-01  5.72932217e-01  5.93399715e-01
  6.17036454e-01  6.26653763e-01  6.46734328e-01  6.66774302e-01
  6.96446775e-01  7.02403201e-01  7.17435785e-01  7.37593956e-01
  7.68655918e-01  7.76689800e-01  7.96034758e-01  8.12757485e-01
  8.79481304e-01  8.95014647e-01  9.54330425e-01  1.09148007e+00]
nelec by numeric integration = 146.00000302635095
    CPU time for vxc     38.47 sec, wall time     15.87 sec
E1 = -4105.922083092694  Ecoul = 1897.7683344166603  Exc = -124.63301077983101
cycle= 8 E= -835.54665695519  delta_E= -3.36e-06  |g|= 0.000682  |ddm|= 0.0052
    CPU time for cycle= 8     38.95 sec, wall time     15.94 sec
  HOMO = -0.104594285532495  LUMO = -0.0351883366265807
  mo_energy =
[-1.00483007e+01 -1.00340899e+01 -1.00279649e+01 -1.00262903e+01
 -1.00245704e+01 -1.00243941e+01 -1.00238623e+01 -1.00235642e+01
 -1.00229587e+01 -1.00205495e+01 -1.00198289e+01 -1.00189907e+01
 -1.00146280e+01 -1.00141321e+01 -1.00125317e+01 -1.00112314e+01
 -1.00100501e+01 -1.00041111e+01 -1.00015562e+01 -1.00004596e+01
 -1.00002780e+01 -9.99582901e+00 -8.67956249e-01 -8.41557076e-01
 -8.07212871e-01 -7.70557885e-01 -7.68111998e-01 -7.47722256e-01
 -7.40557146e-01 -7.13682466e-01 -7.04766716e-01 -6.74783433e-01
 -6.57574695e-01 -6.46942337e-01 -6.10001309e-01 -6.00638664e-01
 -5.72229670e-01 -5.51921276e-01 -5.50713897e-01 -5.28102618e-01
 -5.13727605e-01 -4.80999057e-01 -4.75731457e-01 -4.67227780e-01
 -4.55067290e-01 -4.36833993e-01 -4.23894083e-01 -4.21396395e-01
 -4.09166752e-01 -3.93743015e-01 -3.87914785e-01 -3.79549033e-01
 -3.71691914e-01 -3.64092262e-01 -3.52022230e-01 -3.50975591e-01
 -3.42546093e-01 -3.24546052e-01 -3.13641457e-01 -3.08964444e-01
 -2.88277615e-01 -2.85400119e-01 -2.73378100e-01 -2.69967899e-01
 -2.54622442e-01 -2.47213833e-01 -2.33639303e-01 -2.20665166e-01
 -2.05047837e-01 -2.01082344e-01 -1.84214549e-01 -1.44736468e-01
 -1.04594286e-01 -3.51883366e-02  8.05993898e-03  5.23780222e-02
  6.84996602e-02  1.05214678e-01  1.29481005e-01  1.40418635e-01
  1.50708523e-01  1.97481120e-01  2.13371681e-01  2.46621918e-01
  2.67526413e-01  2.74135686e-01  2.90723128e-01  2.93593196e-01
  3.05988634e-01  3.11214799e-01  3.50772257e-01  3.64607844e-01
  3.72818136e-01  3.91590535e-01  3.95530759e-01  4.20289534e-01
  4.31905269e-01  4.38509544e-01  4.60804303e-01  4.73172843e-01
  5.05181018e-01  5.19345340e-01  5.33335796e-01  5.43634990e-01
  5.57273516e-01  5.69123395e-01  5.72918993e-01  5.93394576e-01
  6.17014486e-01  6.26618580e-01  6.46704034e-01  6.66764745e-01
  6.96402418e-01  7.02392431e-01  7.17425627e-01  7.37578746e-01
  7.68594699e-01  7.76653805e-01  7.96040730e-01  8.12710678e-01
  8.79483197e-01  8.95014470e-01  9.54366065e-01  1.09139958e+00]
nelec by numeric integration = 146.00000302651637
    CPU time for vxc     38.57 sec, wall time     15.95 sec
E1 = -4105.925132020957  Ecoul = 1897.7714359416211  Exc = -124.63306350008803
cycle= 9 E= -835.546657078749  delta_E= -1.24e-07  |g|= 0.000419  |ddm|= 0.00159
    CPU time for cycle= 9     38.98 sec, wall time     16.02 sec
  HOMO = -0.104608408612166  LUMO = -0.0351919517366949
  mo_energy =
[-1.00482619e+01 -1.00340977e+01 -1.00279677e+01 -1.00262905e+01
 -1.00246086e+01 -1.00243299e+01 -1.00238686e+01 -1.00236031e+01
 -1.00229626e+01 -1.00205635e+01 -1.00197228e+01 -1.00189995e+01
 -1.00146567e+01 -1.00141476e+01 -1.00125441e+01 -1.00112302e+01
 -1.00100895e+01 -1.00041322e+01 -1.00016110e+01 -1.00005109e+01
 -1.00002287e+01 -9.99582111e+00 -8.67938714e-01 -8.41556416e-01
 -8.07218417e-01 -7.70562282e-01 -7.68114010e-01 -7.47722422e-01
 -7.40561776e-01 -7.13688719e-01 -7.04771308e-01 -6.74784423e-01
 -6.57586307e-01 -6.46947637e-01 -6.10002598e-01 -6.00645727e-01
 -5.72230322e-01 -5.51922424e-01 -5.50703749e-01 -5.28104213e-01
 -5.13728873e-01 -4.81006273e-01 -4.75736316e-01 -4.67230710e-01
 -4.55068772e-01 -4.36839639e-01 -4.23891576e-01 -4.21397284e-01
 -4.09169719e-01 -3.93747965e-01 -3.87907853e-01 -3.79547658e-01
 -3.71689019e-01 -3.64094641e-01 -3.52023712e-01 -3.50972239e-01
 -3.42549036e-01 -3.24546132e-01 -3.13647797e-01 -3.08968826e-01
 -2.88271436e-01 -2.85394257e-01 -2.73375152e-01 -2.69970177e-01
 -2.54628108e-01 -2.47213691e-01 -2.33629546e-01 -2.20669118e-01
 -2.05055469e-01 -2.01090628e-01 -1.84211293e-01 -1.44740369e-01
 -1.04608409e-01 -3.51919517e-02  8.05600926e-03  5.23846489e-02
  6.84956956e-02  1.05207315e-01  1.29473588e-01  1.40427607e-01
  1.50707336e-01  1.97476506e-01  2.13366350e-01  2.46643313e-01
  2.67527362e-01  2.74134323e-01  2.90709867e-01  2.93595323e-01
  3.05984536e-01  3.11226528e-01  3.50769380e-01  3.64606347e-01
  3.72818382e-01  3.91596300e-01  3.95528571e-01  4.20283123e-01
  4.31911086e-01  4.38511542e-01  4.60809451e-01  4.73168852e-01
  5.05181478e-01  5.19346835e-01  5.33329931e-01  5.43630479e-01
  5.57271314e-01  5.69114258e-01  5.72916315e-01  5.93385435e-01
  6.17012223e-01  6.26618631e-01  6.46709320e-01  6.66758796e-01
  6.96407785e-01  7.02390547e-01  7.17426596e-01  7.37569693e-01
  7.68590977e-01  7.76650288e-01  7.96027995e-01  8.12718384e-01
  8.79468071e-01  8.95000115e-01  9.54341031e-01  1.09143700e+00]
nelec by numeric integration = 146.0000030264431
    CPU time for vxc     38.04 sec, wall time     15.89 sec
E1 = -4105.924587360258  Ecoul = 1897.7708984095316  Exc = -124.6330706893181
cycle= 10 E= -835.546657139369  delta_E= -6.06e-08  |g|= 8.24e-05  |ddm|= 0.000682
    CPU time for cycle= 10     38.52 sec, wall time     15.96 sec
  HOMO = -0.104609662415652  LUMO = -0.0351926987013886
  mo_energy =
[-1.00482633e+01 -1.00341104e+01 -1.00279469e+01 -1.00262808e+01
 -1.00246049e+01 -1.00243414e+01 -1.00238623e+01 -1.00235987e+01
 -1.00229548e+01 -1.00205573e+01 -1.00197323e+01 -1.00190138e+01
 -1.00146613e+01 -1.00141564e+01 -1.00125455e+01 -1.00112298e+01
 -1.00100865e+01 -1.00041345e+01 -1.00015969e+01 -1.00005169e+01
 -1.00002432e+01 -9.99581334e+00 -8.67942078e-01 -8.41553571e-01
 -8.07217103e-01 -7.70561461e-01 -7.68115817e-01 -7.47722681e-01
 -7.40561460e-01 -7.13689168e-01 -7.04769923e-01 -6.74784738e-01
 -6.57585803e-01 -6.46949040e-01 -6.10000529e-01 -6.00646342e-01
 -5.72230242e-01 -5.51921951e-01 -5.50705171e-01 -5.28102630e-01
 -5.13727554e-01 -4.81007529e-01 -4.75738171e-01 -4.67230661e-01
 -4.55068239e-01 -4.36839683e-01 -4.23892358e-01 -4.21397501e-01
 -4.09169629e-01 -3.93747929e-01 -3.87909085e-01 -3.79548122e-01
 -3.71689222e-01 -3.64093058e-01 -3.52021968e-01 -3.50973402e-01
 -3.42548776e-01 -3.24544525e-01 -3.13646480e-01 -3.08968234e-01
 -2.88270719e-01 -2.85396325e-01 -2.73375915e-01 -2.69970139e-01
 -2.54627695e-01 -2.47214249e-01 -2.33631138e-01 -2.20668159e-01
 -2.05056476e-01 -2.01091603e-01 -1.84211826e-01 -1.44739924e-01
 -1.04609662e-01 -3.51926987e-02  8.05727258e-03  5.23820828e-02
  6.84942136e-02  1.05208674e-01  1.29474451e-01  1.40425423e-01
  1.50708589e-01  1.97475712e-01  2.13363384e-01  2.46639063e-01
  2.67530121e-01  2.74134652e-01  2.90706339e-01  2.93591929e-01
  3.05985486e-01  3.11225061e-01  3.50769832e-01  3.64608427e-01
  3.72818228e-01  3.91595857e-01  3.95530230e-01  4.20286076e-01
  4.31910789e-01  4.38511747e-01  4.60810016e-01  4.73171123e-01
  5.05184257e-01  5.19346829e-01  5.33330444e-01  5.43630801e-01
  5.57267115e-01  5.69116056e-01  5.72915624e-01  5.93387053e-01
  6.17013706e-01  6.26617671e-01  6.46706600e-01  6.66761981e-01
  6.96405449e-01  7.02392960e-01  7.17428595e-01  7.37573692e-01
  7.68594231e-01  7.76651365e-01  7.96028771e-01  8.12713328e-01
  8.79468178e-01  8.95001480e-01  9.54339276e-01  1.09143022e+00]
nelec by numeric integration = 146.00000302642883
    CPU time for vxc     38.54 sec, wall time     16.07 sec
E1 = -4105.924447743031  Ecoul = 1897.77075899511  Exc = -124.63307089373566
cycle= 11 E= -835.546657140982  delta_E= -1.61e-09  |g|= 5.84e-05  |ddm|= 0.0002
    CPU time for cycle= 11     38.87 sec, wall time     16.12 sec
  HOMO = -0.104609933161308  LUMO = -0.0351912773276135
  mo_energy =
[-1.00482589e+01 -1.00341066e+01 -1.00279584e+01 -1.00262874e+01
 -1.00246055e+01 -1.00243383e+01 -1.00238674e+01 -1.00235999e+01
 -1.00229604e+01 -1.00205568e+01 -1.00197312e+01 -1.00190041e+01
 -1.00146616e+01 -1.00141596e+01 -1.00125413e+01 -1.00112347e+01
 -1.00100864e+01 -1.00041344e+01 -1.00016029e+01 -1.00005041e+01
 -1.00002331e+01 -9.99581654e+00 -8.67941258e-01 -8.41556562e-01
 -8.07218750e-01 -7.70562405e-01 -7.68114351e-01 -7.47723329e-01
 -7.40560636e-01 -7.13690195e-01 -7.04769886e-01 -6.74784313e-01
 -6.57584165e-01 -6.46947587e-01 -6.10001282e-01 -6.00646625e-01
 -5.72230729e-01 -5.51922411e-01 -5.50704055e-01 -5.28103772e-01
 -5.13728471e-01 -4.81006202e-01 -4.75737177e-01 -4.67230668e-01
 -4.55067360e-01 -4.36840241e-01 -4.23892490e-01 -4.21397176e-01
 -4.09169824e-01 -3.93748041e-01 -3.87908741e-01 -3.79548694e-01
 -3.71688858e-01 -3.64094751e-01 -3.52024601e-01 -3.50973852e-01
 -3.42551280e-01 -3.24547113e-01 -3.13647606e-01 -3.08969398e-01
 -2.88270737e-01 -2.85393995e-01 -2.73376122e-01 -2.69971345e-01
 -2.54627313e-01 -2.47215095e-01 -2.33631005e-01 -2.20667711e-01
 -2.05056520e-01 -2.01091755e-01 -1.84211077e-01 -1.44739786e-01
 -1.04609933e-01 -3.51912773e-02  8.05686609e-03  5.23838863e-02
  6.84942535e-02  1.05208350e-01  1.29472871e-01  1.40427118e-01
  1.50707080e-01  1.97473928e-01  2.13361606e-01  2.46640975e-01
  2.67527468e-01  2.74132811e-01  2.90708744e-01  2.93592414e-01
  3.05983394e-01  3.11228432e-01  3.50768629e-01  3.64608907e-01
  3.72817397e-01  3.91595894e-01  3.95529105e-01  4.20283051e-01
  4.31912120e-01  4.38511806e-01  4.60809069e-01  4.73169782e-01
  5.05183220e-01  5.19347411e-01  5.33331296e-01  5.43631575e-01
  5.57268225e-01  5.69115422e-01  5.72915174e-01  5.93387606e-01
  6.17011859e-01  6.26618311e-01  6.46707008e-01  6.66759877e-01
  6.96406641e-01  7.02391589e-01  7.17426819e-01  7.37569032e-01
  7.68595357e-01  7.76650641e-01  7.96026755e-01  8.12715320e-01
  8.79467168e-01  8.94999675e-01  9.54343862e-01  1.09143370e+00]
nelec by numeric integration = 146.00000302642792
    CPU time for vxc     38.67 sec, wall time     16.22 sec
E1 = -4105.924695494566  Ecoul = 1897.7710053360856  Exc = -124.63306948440535
cycle= 12 E= -835.54665714221  delta_E= -1.23e-09  |g|= 2.35e-05  |ddm|= 0.000136
    CPU time for cycle= 12     39.07 sec, wall time     16.29 sec
  HOMO = -0.10461010196473  LUMO = -0.0351911646017154
  mo_energy =
[-1.00482610e+01 -1.00341045e+01 -1.00279579e+01 -1.00262861e+01
 -1.00246082e+01 -1.00243392e+01 -1.00238669e+01 -1.00236025e+01
 -1.00229599e+01 -1.00205572e+01 -1.00197295e+01 -1.00190047e+01
 -1.00146618e+01 -1.00141526e+01 -1.00125426e+01 -1.00112309e+01
 -1.00100829e+01 -1.00041341e+01 -1.00016005e+01 -1.00005077e+01
 -1.00002348e+01 -9.99581612e+00 -8.67941089e-01 -8.41555957e-01
 -8.07218148e-01 -7.70561866e-01 -7.68114412e-01 -7.47722861e-01
 -7.40560528e-01 -7.13690009e-01 -7.04769864e-01 -6.74783942e-01
 -6.57584391e-01 -6.46948241e-01 -6.10000557e-01 -6.00646524e-01
 -5.72230586e-01 -5.51922070e-01 -5.50703975e-01 -5.28103379e-01
 -5.13727909e-01 -4.81006531e-01 -4.75737276e-01 -4.67230567e-01
 -4.55067029e-01 -4.36839729e-01 -4.23892097e-01 -4.21397005e-01
 -4.09169445e-01 -3.93748101e-01 -3.87908147e-01 -3.79548169e-01
 -3.71688738e-01 -3.64094225e-01 -3.52024088e-01 -3.50973337e-01
 -3.42550597e-01 -3.24546486e-01 -3.13647738e-01 -3.08968969e-01
 -2.88269996e-01 -2.85394176e-01 -2.73375539e-01 -2.69970962e-01
 -2.54627291e-01 -2.47214696e-01 -2.33630627e-01 -2.20667675e-01
 -2.05056143e-01 -2.01091815e-01 -1.84211172e-01 -1.44739358e-01
 -1.04610102e-01 -3.51911646e-02  8.05714383e-03  5.23840224e-02
  6.84949976e-02  1.05208092e-01  1.29473367e-01  1.40427458e-01
  1.50707738e-01  1.97474305e-01  2.13361871e-01  2.46640979e-01
  2.67528072e-01  2.74133116e-01  2.90708126e-01  2.93592156e-01
  3.05983664e-01  3.11228093e-01  3.50769343e-01  3.64609320e-01
  3.72817849e-01  3.91596233e-01  3.95529470e-01  4.20283851e-01
  4.31912327e-01  4.38511798e-01  4.60809541e-01  4.73169996e-01
  5.05183705e-01  5.19348178e-01  5.33331220e-01  5.43631734e-01
  5.57268127e-01  5.69115335e-01  5.72915940e-01  5.93387282e-01
  6.17013083e-01  6.26618761e-01  6.46708086e-01  6.66759842e-01
  6.96407291e-01  7.02392182e-01  7.17427666e-01  7.37570353e-01
  7.68595421e-01  7.76651364e-01  7.96027389e-01  8.12714988e-01
  8.79467065e-01  8.94999727e-01  9.54342581e-01  1.09143279e+00]
nelec by numeric integration = 146.0000030264259
    CPU time for vxc     39.03 sec, wall time     16.58 sec
E1 = -4105.924618344407  Ecoul = 1897.7709277313902  Exc = -124.63306903005366
cycle= 13 E= -835.546657142395  delta_E= -1.85e-10  |g|= 9.72e-06  |ddm|= 4.95e-05
    CPU time for cycle= 13     39.46 sec, wall time     16.65 sec
  HOMO = -0.104610094972572  LUMO = -0.0351906905663305
  mo_energy =
[-1.00482622e+01 -1.00341052e+01 -1.00279575e+01 -1.00262861e+01
 -1.00246062e+01 -1.00243392e+01 -1.00238669e+01 -1.00236006e+01
 -1.00229599e+01 -1.00205543e+01 -1.00197290e+01 -1.00190058e+01
 -1.00146604e+01 -1.00141535e+01 -1.00125428e+01 -1.00112315e+01
 -1.00100833e+01 -1.00041344e+01 -1.00016014e+01 -1.00005085e+01
 -1.00002328e+01 -9.99581650e+00 -8.67941336e-01 -8.41555832e-01
 -8.07218270e-01 -7.70561771e-01 -7.68114337e-01 -7.47722524e-01
 -7.40560641e-01 -7.13689747e-01 -7.04769635e-01 -6.74783969e-01
 -6.57584597e-01 -6.46947669e-01 -6.10000397e-01 -6.00646164e-01
 -5.72230512e-01 -5.51922096e-01 -5.50704229e-01 -5.28103389e-01
 -5.13727794e-01 -4.81006531e-01 -4.75737252e-01 -4.67230238e-01
 -4.55067015e-01 -4.36839722e-01 -4.23892008e-01 -4.21397120e-01
 -4.09169472e-01 -3.93747989e-01 -3.87908281e-01 -3.79548264e-01
 -3.71688519e-01 -3.64094292e-01 -3.52023916e-01 -3.50973392e-01
 -3.42550389e-01 -3.24546236e-01 -3.13647321e-01 -3.08968997e-01
 -2.88269924e-01 -2.85393646e-01 -2.73375439e-01 -2.69970875e-01
 -2.54627279e-01 -2.47214458e-01 -2.33630583e-01 -2.20667604e-01
 -2.05055980e-01 -2.01091705e-01 -1.84210610e-01 -1.44739327e-01
 -1.04610095e-01 -3.51906906e-02  8.05728412e-03  5.23844444e-02
  6.84951309e-02  1.05208269e-01  1.29473316e-01  1.40427667e-01
  1.50707697e-01  1.97474477e-01  2.13362165e-01  2.46640924e-01
  2.67527993e-01  2.74133307e-01  2.90708108e-01  2.93592438e-01
  3.05984027e-01  3.11229276e-01  3.50769317e-01  3.64609334e-01
  3.72818019e-01  3.91596094e-01  3.95529288e-01  4.20283924e-01
  4.31912423e-01  4.38512160e-01  4.60809659e-01  4.73170152e-01
  5.05183858e-01  5.19348357e-01  5.33331218e-01  5.43631807e-01
  5.57268269e-01  5.69115325e-01  5.72916025e-01  5.93387025e-01
  6.17012944e-01  6.26618587e-01  6.46707839e-01  6.66760188e-01
  6.96407098e-01  7.02392056e-01  7.17427621e-01  7.37570454e-01
  7.68596179e-01  7.76651403e-01  7.96027548e-01  8.12714727e-01
  8.79467412e-01  8.95000131e-01  9.54342252e-01  1.09143233e+00]
nelec by numeric integration = 146.0000030264263
    CPU time for vxc     38.44 sec, wall time     16.05 sec
E1 = -4105.924625534926  Ecoul = 1897.7709350292098  Exc = -124.633069137369
cycle= 14 E= -835.54665714241  delta_E= -1.5e-11  |g|= 8.9e-06  |ddm|= 3.22e-05
    CPU time for cycle= 14     38.85 sec, wall time     16.12 sec
  HOMO = -0.104609968830079  LUMO = -0.0351910745670849
  mo_energy =
[-1.00482599e+01 -1.00341054e+01 -1.00279575e+01 -1.00262857e+01
 -1.00246086e+01 -1.00243385e+01 -1.00238662e+01 -1.00236029e+01
 -1.00229591e+01 -1.00205603e+01 -1.00197307e+01 -1.00190041e+01
 -1.00146637e+01 -1.00141538e+01 -1.00125412e+01 -1.00112308e+01
 -1.00100844e+01 -1.00041338e+01 -1.00015998e+01 -1.00005052e+01
 -1.00002369e+01 -9.99581452e+00 -8.67940991e-01 -8.41555838e-01
 -8.07217726e-01 -7.70561941e-01 -7.68114444e-01 -7.47723322e-01
 -7.40560298e-01 -7.13690008e-01 -7.04770025e-01 -6.74784104e-01
 -6.57583611e-01 -6.46948823e-01 -6.10000972e-01 -6.00646889e-01
 -5.72230441e-01 -5.51922039e-01 -5.50703921e-01 -5.28103089e-01
 -5.13728172e-01 -4.81006210e-01 -4.75737179e-01 -4.67230897e-01
 -4.55067543e-01 -4.36839715e-01 -4.23892091e-01 -4.21396833e-01
 -4.09169527e-01 -3.93747796e-01 -3.87908339e-01 -3.79548079e-01
 -3.71689073e-01 -3.64094019e-01 -3.52023903e-01 -3.50973260e-01
 -3.42550487e-01 -3.24546415e-01 -3.13647684e-01 -3.08968673e-01
 -2.88270497e-01 -2.85395139e-01 -2.73375673e-01 -2.69970653e-01
 -2.54627043e-01 -2.47214859e-01 -2.33630773e-01 -2.20667357e-01
 -2.05056168e-01 -2.01091111e-01 -1.84211866e-01 -1.44739520e-01
 -1.04609969e-01 -3.51910746e-02  8.05697414e-03  5.23833591e-02
  6.84946352e-02  1.05208387e-01  1.29473731e-01  1.40426838e-01
  1.50707801e-01  1.97474795e-01  2.13362513e-01  2.46640736e-01
  2.67528618e-01  2.74133337e-01  2.90708996e-01  2.93592094e-01
  3.05983793e-01  3.11226311e-01  3.50769112e-01  3.64608605e-01
  3.72817768e-01  3.91596307e-01  3.95529948e-01  4.20284087e-01
  4.31911768e-01  4.38511240e-01  4.60809253e-01  4.73169989e-01
  5.05183585e-01  5.19347600e-01  5.33331467e-01  5.43631591e-01
  5.57268150e-01  5.69115708e-01  5.72915590e-01  5.93388149e-01
  6.17012915e-01  6.26618571e-01  6.46707729e-01  6.66760077e-01
  6.96407013e-01  7.02392621e-01  7.17427753e-01  7.37570235e-01
  7.68594003e-01  7.76651122e-01  7.96027551e-01  8.12715168e-01
  8.79467203e-01  8.94999845e-01  9.54344001e-01  1.09143335e+00]
nelec by numeric integration = 146.0000030264256
    CPU time for vxc     40.01 sec, wall time     16.51 sec
E1 = -4105.924630383048  Ecoul = 1897.7709399348003  Exc = -124.63306919465103
Extra cycle  E= -835.546657142224  delta_E= 1.86e-10  |g|= 2.33e-05  |ddm|= 5.53e-05
    CPU time for scf_cycle    631.63 sec, wall time    259.98 sec
    CPU time for SCF    631.63 sec, wall time    259.98 sec
converged SCF energy = -835.546657142224
nelec by numeric integration = 146.0000030264256
    CPU time for vxc     40.22 sec, wall time     16.95 sec
 ** Mulliken pop  **
pop of  0 C 1s            1.99083
pop of  0 C 2s            1.14678
pop of  0 C 2px           1.01094
pop of  0 C 2py           0.93326
pop of  0 C 2pz           0.94298
pop of  1 C 1s            1.99085
pop of  1 C 2s            1.10759
pop of  1 C 2px           0.99399
pop of  1 C 2py           0.97682
pop of  1 C 2pz           0.94448
pop of  2 C 1s            1.99188
pop of  2 C 2s            1.21174
pop of  2 C 2px           0.94300
pop of  2 C 2py           0.92742
pop of  2 C 2pz           0.95286
pop of  3 C 1s            1.99145
pop of  3 C 2s            1.21924
pop of  3 C 2px           0.93355
pop of  3 C 2py           0.93530
pop of  3 C 2pz           0.94892
pop of  4 C 1s            1.99104
pop of  4 C 2s            1.17114
pop of  4 C 2px           1.00931
pop of  4 C 2py           0.91025
pop of  4 C 2pz           0.98079
pop of  5 C 1s            1.99099
pop of  5 C 2s            1.14172
pop of  5 C 2px           1.01593
pop of  5 C 2py           0.95335
pop of  5 C 2pz           0.97761
pop of  6 C 1s            1.99056
pop of  6 C 2s            1.13456
pop of  6 C 2px           1.00599
pop of  6 C 2py           0.99466
pop of  6 C 2pz           0.96838
pop of  7 C 1s            1.99176
pop of  7 C 2s            1.12943
pop of  7 C 2px           1.03188
pop of  7 C 2py           0.98725
pop of  7 C 2pz           1.01215
pop of  8 C 1s            1.99068
pop of  8 C 2s            1.12389
pop of  8 C 2px           0.98975
pop of  8 C 2py           0.94739
pop of  8 C 2pz           0.95451
pop of  9 C 1s            1.99068
pop of  9 C 2s            1.13824
pop of  9 C 2px           0.96682
pop of  9 C 2py           0.94247
pop of  9 C 2pz           0.94770
pop of  10 C 1s           1.99137
pop of  10 C 2s           1.15113
pop of  10 C 2px          0.98391
pop of  10 C 2py          0.96094
pop of  10 C 2pz          1.03617
pop of  11 C 1s           1.99060
pop of  11 C 2s           1.11941
pop of  11 C 2px          0.99082
pop of  11 C 2py          0.97588
pop of  11 C 2pz          1.05137
pop of  12 C 1s           1.99070
pop of  12 C 2s           1.14612
pop of  12 C 2px          0.97222
pop of  12 C 2py          0.93942
pop of  12 C 2pz          0.93172
pop of  13 C 1s           1.99076
pop of  13 C 2s           1.14940
pop of  13 C 2px          0.95683
pop of  13 C 2py          0.95788
pop of  13 C 2pz          0.93999
pop of  14 C 1s           1.99102
pop of  14 C 2s           1.04429
pop of  14 C 2px          1.00605
pop of  14 C 2py          1.02208
pop of  14 C 2pz          1.01965
pop of  15 C 1s           1.99091
pop of  15 C 2s           1.16470
pop of  15 C 2px          0.98061
pop of  15 C 2py          0.94930
pop of  15 C 2pz          0.98433
pop of  16 C 1s           1.99092
pop of  16 C 2s           1.02068
pop of  16 C 2px          1.02457
pop of  16 C 2py          1.04027
pop of  16 C 2pz          0.94850
pop of  17 C 1s           1.99094
pop of  17 C 2s           1.17376
pop of  17 C 2px          0.95154
pop of  17 C 2py          0.94380
pop of  17 C 2pz          0.92770
pop of  18 C 1s           1.99067
pop of  18 C 2s           1.10892
pop of  18 C 2px          0.99956
pop of  18 C 2py          0.95168
pop of  18 C 2pz          1.03848
pop of  19 C 1s           1.99100
pop of  19 C 2s           1.19125
pop of  19 C 2px          1.00242
pop of  19 C 2py          0.93850
pop of  19 C 2pz          0.95862
pop of  20 C 1s           1.99147
pop of  20 C 2s           1.17736
pop of  20 C 2px          1.00781
pop of  20 C 2py          0.99258
pop of  20 C 2pz          0.94459
pop of  21 C 1s           1.99153
pop of  21 C 2s           1.24523
pop of  21 C 2px          0.94202
pop of  21 C 2py          0.95819
pop of  21 C 2pz          0.91997
pop of  22 H 1s           0.94958
pop of  23 H 1s           0.93836
pop of  24 H 1s           0.93225
pop of  25 H 1s           0.93459
pop of  26 H 1s           0.90750
pop of  27 H 1s           0.88253
pop of  28 H 1s           0.88103
pop of  29 H 1s           0.88474
pop of  30 H 1s           0.92370
pop of  31 H 1s           0.92714
pop of  32 H 1s           0.90055
pop of  33 H 1s           0.90712
pop of  34 H 1s           0.88121
pop of  35 H 1s           0.94081
 ** Mulliken atomic charges  **
charge of    0C =     -0.02479
charge of    1C =     -0.01373
charge of    2C =     -0.02689
charge of    3C =     -0.02847
charge of    4C =     -0.06253
charge of    5C =     -0.07961
charge of    6C =     -0.09416
charge of    7C =     -0.15247
charge of    8C =     -0.00622
charge of    9C =      0.01409
charge of   10C =     -0.12352
charge of   11C =     -0.12808
charge of   12C =      0.01982
charge of   13C =      0.00514
charge of   14C =     -0.08309
charge of   15C =     -0.06985
charge of   16C =     -0.02494
charge of   17C =      0.01226
charge of   18C =     -0.08931
charge of   19C =     -0.08179
charge of   20C =     -0.11381
charge of   21C =     -0.05693
charge of   22H =      0.05042
charge of   23H =      0.06164
charge of   24H =      0.06775
charge of   25H =      0.06541
charge of   26H =      0.09250
charge of   27H =      0.11747
charge of   28H =      0.11897
charge of   29H =      0.11526
charge of   30H =      0.07630
charge of   31H =      0.07286
charge of   32H =      0.09945
charge of   33H =      0.09288
charge of   34H =      0.11879
charge of   35H =      0.05919
Dipole moment(X, Y, Z, Debye): -0.07009, -1.63113,  0.13931
nelec by numeric integration = 146.0000030264256
    CPU time for vxc     39.20 sec, wall time     16.65 sec
E1 = -4105.924630383048  Ecoul = 1897.7709399347996  Exc = -124.63306919465103
nelec by numeric integration = 146.0000030264256
    CPU time for vxc     40.11 sec, wall time     16.95 sec
E1 = -4105.924630383048  Ecoul = 1897.7709399348  Exc = -124.63306919465103
