System: uname_result(system='Linux', node='cosmopc18', release='5.15.0-97-generic', version='#107-Ubuntu SMP Wed Feb 7 13:26:48 UTC 2024', machine='x86_64')  Threads 4
Python 3.11.8 (main, Feb 26 2024, 21:39:34) [GCC 11.2.0]
numpy 1.26.4  scipy 1.11.4
Date: Tue Apr  9 14:31:02 2024
PySCF version 2.3.0
PySCF path  /home/saade/miniconda3/envs/tutorial/lib/python3.11/site-packages/pyscf

[ENV] PYSCFAD_BACKEND torch
[CONFIG] conf_file None
[INPUT] verbose = 5
[INPUT] max_memory = 4000 
[INPUT] num. atoms = 36
[INPUT] num. electrons = 146
[INPUT] charge = 0
[INPUT] spin (= nelec alpha-beta = 2S) = 0
[INPUT] symmetry False subgroup None
[INPUT] Mole.unit = angstrom
[INPUT] Symbol           X                Y                Z      unit          X                Y                Z       unit  Magmom
[INPUT]  1 C      0.145781000000   3.695969000000   0.849894000000 AA    0.275486164165   6.984369174883   1.606066894911 Bohr   0.0
[INPUT]  2 C      0.035728000000   3.629709000000  -0.727606000000 AA    0.067516134978   6.859155921869  -1.374976066590 Bohr   0.0
[INPUT]  3 C     -0.018846000000   4.963306000000   1.436250000000 AA   -0.035613778544   9.379289012411   2.714119146407 Bohr   0.0
[INPUT]  4 C      0.072821000000   2.474930000000   1.474326000000 AA    0.137611746117   4.676939877470   2.786072358326 Bohr   0.0
[INPUT]  5 C      0.071675000000   4.935884000000  -1.474323000000 AA    0.135446119978   9.327468942623  -2.786066689147 Bohr   0.0
[INPUT]  6 C     -0.086980000000   2.531950000000  -1.363998000000 AA   -0.164368378315   4.784692061093  -2.577582654454 Bohr   0.0
[INPUT]  7 C     -0.052265000000   6.135987000000  -0.688494000000 AA   -0.098766535900  11.595334933892  -1.301065098406 Bohr   0.0
[INPUT]  8 C     -0.109540000000   6.151562000000   0.748934000000 AA   -0.207000599685  11.624767418282   1.415280145375 Bohr   0.0
[INPUT]  9 C      0.203568000000   1.268403000000   0.660892000000 AA    0.384687767725   2.396934285577   1.248904877916 Bohr   0.0
[INPUT] 10 C      0.114572000000   1.127556000000  -0.664813000000 AA    0.216509701544   2.130772030110  -1.256314494050 Bohr   0.0
[INPUT] 11 C      0.026802000000  -0.002648000000   1.427229000000 AA    0.050648439591  -0.005003994778   2.697071927037 Bohr   0.0
[INPUT] 12 C     -0.027719000000   0.016263000000  -1.305386000000 AA   -0.052381318447   0.030732615964  -2.466822026841 Bohr   0.0
[INPUT] 13 C     -0.030764000000  -1.384991000000   0.782850000000 AA   -0.058135534496  -2.617253674987   1.479372096616 Bohr   0.0
[INPUT] 14 C     -0.042196000000  -1.129067000000  -0.904237000000 AA   -0.079738883552  -2.133627406284  -1.708760281698 Bohr   0.0
[INPUT] 15 C      0.059681000000  -2.531893000000   1.167161000000 AA    0.112780744840  -4.784584346703   2.205614633273 Bohr   0.0
[INPUT] 16 C     -0.146382000000  -2.409935000000  -1.416527000000 AA   -0.276621889566  -4.554117128004  -2.676848078052 Bohr   0.0
[INPUT] 17 C      0.043136000000  -3.669082000000   0.520493000000 AA    0.081515226109  -6.933560108571   0.983589219753 Bohr   0.0
[INPUT] 18 C     -0.097176000000  -3.795829000000  -0.723820000000 AA   -0.183636025881  -7.173077225682  -1.367821563483 Bohr   0.0
[INPUT] 19 C      0.067473000000  -4.856224000000   1.320331000000 AA    0.127505490803  -9.176933359540   2.495063983773 Bohr   0.0
[INPUT] 20 C      0.043474000000  -4.937815000000  -1.452989000000 AA    0.082153953539  -9.331118003769  -2.745751272006 Bohr   0.0
[INPUT] 21 C      0.130481000000  -6.179353000000   0.679837000000 AA    0.246573354459 -11.677284797009   1.284705739346 Bohr   0.0
[INPUT] 22 C      0.055618000000  -6.020299000000  -0.747880000000 AA    0.105102787596 -11.376716297993  -1.413288374040 Bohr   0.0
[INPUT] 23 H     -0.046526000000   4.977947000000   2.594207000000 AA   -0.087921397672   9.406956492600   4.902340740430 Bohr   0.0
[INPUT] 24 H     -0.188679000000   2.482825000000   2.772981000000 AA   -0.356551635457   4.691859265223   5.240174638623 Bohr   0.0
[INPUT] 25 H      0.063183000000   4.938595000000  -2.441566000000 AA    0.119398565728   9.332591990146  -4.613891055050 Bohr   0.0
[INPUT] 26 H     -0.051779000000   2.436165000000  -2.338905000000 AA   -0.097848129004   4.603684644251  -4.419889881376 Bohr   0.0
[INPUT] 27 H      0.109614000000   6.924390000000  -1.265680000000 AA    0.207140439418  13.085200679677  -2.391788561340 Bohr   0.0
[INPUT] 28 H     -0.065949000000   6.965171000000   1.271925000000 AA   -0.124625548189  13.162265600763   2.403589900987 Bohr   0.0
[INPUT] 29 H     -0.003391000000  -0.212232000000   2.511925000000 AA   -0.006408061288  -0.401060354869   4.746850295448 Bohr   0.0
[INPUT] 30 H     -0.098045000000   0.030408000000  -2.440131000000 AA   -0.185278197883   0.057462791996  -4.611179298061 Bohr   0.0
[INPUT] 31 H      0.291995000000  -2.467251000000   2.400252000000 AA    0.551790579742  -4.662428670559   4.535818909940 Bohr   0.0
[INPUT] 32 H     -0.059078000000  -2.305323000000  -2.613466000000 AA   -0.111641239987  -4.356429098661  -4.938734975863 Bohr   0.0
[INPUT] 33 H     -0.057867000000  -5.061973000000   2.602635000000 AA   -0.109352781650  -9.565742619943   4.918267352207 Bohr   0.0
[INPUT] 34 H     -0.046196000000  -4.982364000000  -2.566626000000 AA   -0.087297788050  -9.415303412892  -4.850220204188 Bohr   0.0
[INPUT] 35 H     -0.082354000000  -6.997777000000   1.199430000000 AA   -0.155626505262 -13.223882010781   2.266594205587 Bohr   0.0
[INPUT] 36 H     -0.049922000000  -6.986471000000  -1.374703000000 AA   -0.094338907591 -13.202516767216  -2.597812172618 Bohr   0.0
[INPUT] ---------------- BASIS SET ---------------- 
[INPUT] l, kappa, [nprim/nctr], expnt,             c_1 c_2 ...
[INPUT] H
[INPUT] 0    0    [3    /1   ]  3.42525091        0.15432897
                                0.62391373        0.53532814
                                0.1688554         0.44463454
[INPUT] C
[INPUT] 0    0    [3    /1   ]  71.616837         0.15432897
                                13.045096         0.53532814
                                3.5305122         0.44463454
[INPUT] 0    0    [3    /1   ]  2.9412494         -0.09996723
                                0.6834831         0.39951283
                                0.2222899         0.70011547
[INPUT] 1    0    [3    /1   ]  2.9412494         0.15591627
                                0.6834831         0.60768372
                                0.2222899         0.39195739

nuclear repulsion = 1495.75584610581
number of shells = 80
number of NR pGTOs = 372
number of NR cGTOs = 124
basis = sto3g
ecp = {}
CPU time:     42343.66
atom C rad-grids = 99, ang-grids = [ 50  50  50  50  50  50  50  50  50  50  50  50  50  50  50  50  50  50
  50  50  50  50  50  50  50  50  50  50  50  50  50  86  86  86  86  86
  86  86  86  86  86  86  86 434 434 434 434 434 434 434 434 434 590 590
 590 590 590 590 590 590 590 590 590 590 590 590 590 590 590 590 590 590
 590 590 590 590 590 590 590 434 434 434 434 434 434 434 434 434 434 434
 434 434 434 434 434 434 434 434 434]
atom H rad-grids = 99, ang-grids = [ 50  50  50  50  50  50  50  50  50  50  50  50  50  50  50  50  50  50
  50  50  50  50  50  50  50  50  50  50  86  86  86  86  86  86  86 434
 434 434 434 434 434 434 434 590 590 590 590 590 590 590 590 590 590 590
 590 590 590 590 590 590 590 590 590 590 590 590 590 590 590 434 434 434
 434 434 434 434 434 434 434 434 434 434 434 434 434 434 434 434 434 434
 434 434 434 434 434 434 434 434 434]
tot_boxes 5270, boxes in each direction [ 8 29 15]
Padding 0 grids
tot grids = 1157832


******** <class 'pyscf.dft.rks.RKS'> ********
method = RKS
initial guess = minao
damping factor = 0
level_shift factor = 0
DIIS = <class 'pyscf.scf.diis.CDIIS'>
diis_start_cycle = 1
diis_space = 8
SCF conv_tol = 1e-10
SCF conv_tol_grad = None
SCF max_cycles = 50
direct_scf = True
direct_scf_tol = 1e-13
chkfile to save SCF result = /home/saade/mlelec/tutorials/tmpllxt57ar
max_memory 4000 MB (current use 639 MB)
XC library pyscf.dft.libxc version 6.1.0
    S. Lehtola, C. Steigemann, M. J.T. Oliveira, and M. A.L. Marques.,  SoftwareX 7, 1–5 (2018)
XC functionals = b3lypg
    P. J. Stephens, F. J. Devlin, C. F. Chabalowski, and M. J. Frisch.,  J. Phys. Chem. 98, 11623 (1994)
radial grids: 
    Treutler-Ahlrichs [JCP 102, 346 (1995); DOI:10.1063/1.469408] (M4) radial grids
    
becke partition: Becke, JCP 88, 2547 (1988); DOI:10.1063/1.454033
pruning grids: <function nwchem_prune at 0x7f9db5616ca0>
grids dens level: 3
symmetrized grids: False
atomic radii adjust function: <function treutler_atomic_radii_adjust at 0x7f9db5617380>
User specified grid scheme (99, 590)
small_rho_cutoff = 1e-07
Set gradient conv threshold to 1e-05
Initial guess from minao.
nelec by numeric integration = 145.2676690312719
    CPU time for vxc     37.37 sec, wall time     15.68 sec
E1 = -4091.8077466465047  Ecoul = 1880.6312547914797  Exc = -126.05992400695271
init E= -841.480569756163
cond(S) = 20.63572435344604
    CPU time for initialize scf     46.77 sec, wall time     17.96 sec
  HOMO = -0.207033893169447  LUMO = -0.149182966142896
  mo_energy =
[-1.01480534e+01 -1.01381277e+01 -1.01362097e+01 -1.01238513e+01
 -1.01213143e+01 -1.01196105e+01 -1.01150899e+01 -1.01112290e+01
 -1.01087661e+01 -1.01062848e+01 -1.01003112e+01 -1.00968725e+01
 -1.00935147e+01 -1.00935108e+01 -1.00892322e+01 -1.00885339e+01
 -1.00873677e+01 -1.00860098e+01 -1.00836516e+01 -1.00832031e+01
 -1.00825218e+01 -1.00703399e+01 -1.11183047e+00 -1.07813361e+00
 -1.02836511e+00 -9.94178276e-01 -9.60401451e-01 -9.32141684e-01
 -9.03815351e-01 -8.88460803e-01 -8.75101211e-01 -8.44056937e-01
 -8.01503415e-01 -7.69068690e-01 -7.32463125e-01 -7.09833567e-01
 -6.81296756e-01 -6.74194632e-01 -6.61416959e-01 -6.40992376e-01
 -6.07945342e-01 -5.98203634e-01 -5.75231404e-01 -5.47157597e-01
 -5.40405391e-01 -5.18105012e-01 -5.16201178e-01 -4.95444863e-01
 -4.88471680e-01 -4.82840294e-01 -4.73289837e-01 -4.70191485e-01
 -4.61022185e-01 -4.59166625e-01 -4.52254906e-01 -4.31416283e-01
 -4.27919238e-01 -4.18021646e-01 -4.10991834e-01 -4.08626172e-01
 -3.85178482e-01 -3.80326580e-01 -3.70848107e-01 -3.56701560e-01
 -3.42083275e-01 -3.37341007e-01 -3.31601956e-01 -3.07416466e-01
 -2.91790348e-01 -2.89235941e-01 -2.85023923e-01 -2.47402820e-01
 -2.07033893e-01 -1.49182966e-01 -1.02670132e-01 -6.38613508e-02
 -4.70462854e-02 -2.49797386e-02  5.07208684e-03  2.70274295e-02
  5.13507751e-02  7.41635732e-02  9.40362818e-02  1.12497419e-01
  1.28361909e-01  1.38184212e-01  1.57493154e-01  1.76739544e-01
  1.87056528e-01  1.97726646e-01  2.04284083e-01  2.22641980e-01
  2.39926087e-01  2.53811680e-01  2.67589217e-01  2.79195508e-01
  2.87315224e-01  3.07114183e-01  3.13909012e-01  3.35104962e-01
  3.41254409e-01  3.46800781e-01  3.59201442e-01  3.74322535e-01
  4.11427858e-01  4.32658910e-01  4.38063261e-01  4.54360923e-01
  4.90453268e-01  4.97662039e-01  5.07075291e-01  5.31630291e-01
  5.58538900e-01  5.84344337e-01  5.86131270e-01  5.96875909e-01
  6.02682152e-01  6.40179609e-01  6.82967314e-01  7.10337654e-01
  7.18062714e-01  7.42968772e-01  8.15501587e-01  8.84340419e-01]
nelec by numeric integration = 145.99999695071324
    CPU time for vxc     38.36 sec, wall time     15.94 sec
E1 = -4107.157443221857  Ecoul = 1900.2464274034817  Exc = -124.69640874280148
cycle= 1 E= -835.851578455362  delta_E= 5.63  |g|= 0.302  |ddm|= 9.28
    CPU time for cycle= 1     38.68 sec, wall time     16.00 sec
  HOMO = -0.0899277212370139  LUMO = -0.00224548447594766
  mo_energy =
[-1.00494363e+01 -1.00405222e+01 -1.00354846e+01 -1.00287542e+01
 -1.00129914e+01 -1.00109878e+01 -1.00068667e+01 -9.99935610e+00
 -9.99855066e+00 -9.99638735e+00 -9.99173686e+00 -9.99071779e+00
 -9.98847612e+00 -9.98609117e+00 -9.96374606e+00 -9.96234297e+00
 -9.95820865e+00 -9.94900396e+00 -9.94606128e+00 -9.92609414e+00
 -9.90786901e+00 -9.90738705e+00 -8.38987153e-01 -8.17809813e-01
 -7.85841883e-01 -7.61993539e-01 -7.35977091e-01 -7.21713229e-01
 -7.10635660e-01 -6.98034782e-01 -6.86559820e-01 -6.60826846e-01
 -6.26929712e-01 -6.13441014e-01 -5.79805433e-01 -5.63662053e-01
 -5.44449327e-01 -5.36338223e-01 -5.26675312e-01 -5.02189048e-01
 -4.80283849e-01 -4.72859148e-01 -4.54481722e-01 -4.34790741e-01
 -4.23154153e-01 -4.10908610e-01 -3.96504487e-01 -3.92795514e-01
 -3.83635469e-01 -3.74149732e-01 -3.69758430e-01 -3.60856846e-01
 -3.51895508e-01 -3.47331182e-01 -3.42303158e-01 -3.31239447e-01
 -3.29066286e-01 -3.14251679e-01 -3.09035908e-01 -2.92421776e-01
 -2.84577429e-01 -2.79623397e-01 -2.66658484e-01 -2.51714441e-01
 -2.38535037e-01 -2.29120003e-01 -2.13825924e-01 -2.05212308e-01
 -1.86305914e-01 -1.68136244e-01 -1.64610804e-01 -1.32324008e-01
 -8.99277212e-02 -2.24548448e-03  4.78126246e-02  8.57063209e-02
  9.80012135e-02  1.21307755e-01  1.60897949e-01  1.83977821e-01
  2.06228256e-01  2.24119363e-01  2.34871895e-01  2.48384490e-01
  2.71632728e-01  3.05154418e-01  3.21064610e-01  3.25276109e-01
  3.31269536e-01  3.47668692e-01  3.60696716e-01  3.80030366e-01
  3.83218793e-01  3.94709423e-01  4.12154979e-01  4.35121149e-01
  4.46099764e-01  4.59208032e-01  4.72095547e-01  4.74223986e-01
  4.86681910e-01  4.96773120e-01  5.10665899e-01  5.21213477e-01
  5.62678126e-01  5.66766327e-01  5.86735163e-01  5.94770671e-01
  6.23702421e-01  6.42028996e-01  6.70743417e-01  6.90518102e-01
  7.04189805e-01  7.42108520e-01  7.44018605e-01  7.48337365e-01
  7.67089586e-01  7.83906751e-01  8.70832296e-01  8.85604450e-01
  8.98385806e-01  9.38104824e-01  1.01922038e+00  1.09465485e+00]
nelec by numeric integration = 145.99999695445885
    CPU time for vxc     37.73 sec, wall time     15.69 sec
E1 = -4101.626693357359  Ecoul = 1894.5980950621718  Exc = -124.54319600377585
cycle= 2 E= -835.815948193149  delta_E= 0.0356  |g|= 0.434  |ddm|= 1.21
    CPU time for cycle= 2     38.12 sec, wall time     15.75 sec
  HOMO = -0.100263503583443  LUMO = -0.00677251184444431
  mo_energy =
[-1.00350358e+01 -1.00311715e+01 -1.00251011e+01 -1.00189164e+01
 -1.00166730e+01 -1.00148204e+01 -1.00138595e+01 -1.00115293e+01
 -1.00101621e+01 -1.00088735e+01 -1.00074290e+01 -1.00059696e+01
 -1.00045140e+01 -1.00032738e+01 -1.00018031e+01 -9.99864855e+00
 -9.99371329e+00 -9.99342071e+00 -9.99036694e+00 -9.98914189e+00
 -9.98201467e+00 -9.95315965e+00 -8.61446511e-01 -8.36253084e-01
 -8.03593405e-01 -7.79845902e-01 -7.57609302e-01 -7.38202829e-01
 -7.19190474e-01 -7.05405563e-01 -7.01016599e-01 -6.76185812e-01
 -6.45051537e-01 -6.12294555e-01 -5.94832509e-01 -5.74043104e-01
 -5.56577625e-01 -5.48153761e-01 -5.38979924e-01 -5.16351994e-01
 -4.96506595e-01 -4.83128245e-01 -4.69066137e-01 -4.44795158e-01
 -4.36943340e-01 -4.16799952e-01 -4.13482046e-01 -4.01837715e-01
 -3.91649108e-01 -3.85982538e-01 -3.79068208e-01 -3.74536250e-01
 -3.63418313e-01 -3.59924045e-01 -3.50234845e-01 -3.36821460e-01
 -3.33679340e-01 -3.24248005e-01 -3.20112643e-01 -3.08066505e-01
 -2.96073909e-01 -2.85878427e-01 -2.79347257e-01 -2.62141195e-01
 -2.54074708e-01 -2.47041029e-01 -2.36034793e-01 -2.11550118e-01
 -1.93324675e-01 -1.89168407e-01 -1.83154131e-01 -1.48974026e-01
 -1.00263504e-01 -6.77251184e-03  3.44123496e-02  7.59093625e-02
  8.78155044e-02  1.14485921e-01  1.47954003e-01  1.71624287e-01
  2.06200526e-01  2.18199750e-01  2.34451573e-01  2.45779919e-01
  2.54488130e-01  2.85077202e-01  3.04712182e-01  3.10349079e-01
  3.22736156e-01  3.38978894e-01  3.51278384e-01  3.63454271e-01
  3.84192740e-01  3.92943326e-01  4.07271487e-01  4.19672145e-01
  4.33557117e-01  4.46994844e-01  4.50183341e-01  4.73810362e-01
  4.81250419e-01  4.88390062e-01  5.02928129e-01  5.17794402e-01
  5.51105820e-01  5.67874208e-01  5.78725677e-01  5.90693427e-01
  6.16657459e-01  6.32336981e-01  6.41475346e-01  6.67326924e-01
  6.95381084e-01  7.27975698e-01  7.28995456e-01  7.38258747e-01
  7.48345728e-01  7.75820136e-01  8.32304057e-01  8.62157794e-01
  8.70998515e-01  8.92385339e-01  9.72949885e-01  1.04871063e+00]
nelec by numeric integration = 145.99999691671897
    CPU time for vxc     38.06 sec, wall time     15.82 sec
E1 = -4103.200529043048  Ecoul = 1896.1518199566888  Exc = -124.57824937975698
cycle= 3 E= -835.871112360301  delta_E= -0.0552  |g|= 0.215  |ddm|= 1.05
    CPU time for cycle= 3     38.58 sec, wall time     15.90 sec
  HOMO = -0.110095080620238  LUMO = -0.0207874944044532
  mo_energy =
[-10.04161462 -10.03531602 -10.03480772 -10.03321185 -10.02568558
 -10.02471227 -10.02163529 -10.02056279 -10.01948191 -10.01794508
 -10.01709983 -10.01544129 -10.01481969 -10.01403816 -10.01230935
 -10.01018086 -10.00668041 -10.00493347 -10.00405675  -9.99910817
  -9.9987201   -9.98746763  -0.86914347  -0.84553539  -0.80933855
  -0.79050156  -0.76380294  -0.74520075  -0.72558434  -0.71619344
  -0.70656472  -0.68131206  -0.6481646   -0.62812067  -0.59987389
  -0.58180682  -0.55864465  -0.55280305  -0.54497624  -0.52368118
  -0.50002706  -0.49104503  -0.47496383  -0.44946895  -0.44308877
  -0.42292152  -0.41941504  -0.40528171  -0.39700528  -0.38800234
  -0.38314914  -0.38187781  -0.37451498  -0.36502548  -0.3588764
  -0.34511314  -0.3404077   -0.33337369  -0.32927702  -0.31420371
  -0.29953291  -0.29118025  -0.28870506  -0.26784459  -0.26259297
  -0.25489502  -0.24184666  -0.21691798  -0.20464247  -0.19842511
  -0.19284218  -0.15410855  -0.11009508  -0.02078749   0.0291563
   0.06776487   0.08125221   0.10712031   0.14236557   0.16354415
   0.19162839   0.20872662   0.22421639   0.2420445    0.24998691
   0.27639408   0.29596838   0.30978886   0.31870452   0.3328985
   0.34456206   0.35281348   0.37724127   0.37907958   0.39798781
   0.41822316   0.42469412   0.44458334   0.44788048   0.46902925
   0.47697339   0.48034206   0.49615019   0.50621009   0.54423027
   0.5618866    0.56945752   0.58498404   0.61302703   0.63077209
   0.63973627   0.66508197   0.68832332   0.71886139   0.72049887
   0.73248424   0.74053165   0.7705307    0.82672624   0.85166118
   0.86030698   0.88739642   0.96330987   1.03326534]
nelec by numeric integration = 145.99999693243998
    CPU time for vxc     38.01 sec, wall time     15.75 sec
E1 = -4104.099894861318  Ecoul = 1897.048395264069  Exc = -124.59256497042512
cycle= 4 E= -835.888218461859  delta_E= -0.0171  |g|= 0.073  |ddm|= 0.488
    CPU time for cycle= 4     38.48 sec, wall time     15.83 sec
  HOMO = -0.110712558388466  LUMO = -0.0203999407320021
  mo_energy =
[-10.03923991 -10.03838526 -10.03615623 -10.02756826 -10.02644611
 -10.0249827  -10.02304258 -10.0179023  -10.01736412 -10.01651025
 -10.01496928 -10.01469854 -10.0146478  -10.01396168 -10.01253852
 -10.01159262 -10.00986329 -10.00878725 -10.00610171 -10.00388763
 -10.00271073  -9.99785863  -0.86853837  -0.84285336  -0.81025731
  -0.78905117  -0.76423168  -0.74498453  -0.72679787  -0.71530792
  -0.70819906  -0.68197156  -0.64928707  -0.62688989  -0.60033904
  -0.5815696   -0.56039572  -0.55218545  -0.5455427   -0.52323653
  -0.50000346  -0.49040671  -0.47452735  -0.44988305  -0.44216897
  -0.42405785  -0.41916709  -0.40726854  -0.39772721  -0.38951016
  -0.38348869  -0.38136237  -0.37208886  -0.36596616  -0.35783437
  -0.34513145  -0.34130728  -0.33326874  -0.32964904  -0.31554531
  -0.30142907  -0.29310446  -0.28794783  -0.26874681  -0.26336594
  -0.25436638  -0.24257099  -0.21966387  -0.20189958  -0.19890396
  -0.19261744  -0.15578798  -0.11071256  -0.02039994   0.02769987
   0.06726384   0.08007416   0.10458407   0.14154623   0.16204886
   0.1949934    0.21095147   0.2256858    0.24188315   0.24891436
   0.27844857   0.29704377   0.30800858   0.31762206   0.333596
   0.34501149   0.35384637   0.37701305   0.37878418   0.39868453
   0.41484117   0.4247952    0.44305574   0.44659843   0.46691405
   0.4754511    0.47899158   0.4976519    0.50547821   0.54432176
   0.56197663   0.56757551   0.58326191   0.61156945   0.62988287
   0.63753079   0.66390824   0.68749385   0.71941902   0.72065082
   0.72942116   0.73971509   0.76836722   0.82810013   0.85297116
   0.86177456   0.88893783   0.96737003   1.03846803]
nelec by numeric integration = 145.99999693359865
    CPU time for vxc     37.95 sec, wall time     15.90 sec
E1 = -4104.008239461033  Ecoul = 1896.9569091997187  Exc = -124.59456887590082
cycle= 5 E= -835.8900530314  delta_E= -0.00183  |g|= 0.026  |ddm|= 0.148
    CPU time for cycle= 5     38.39 sec, wall time     15.97 sec
  HOMO = -0.1098505426701  LUMO = -0.0191393797538932
  mo_energy =
[-10.03751676 -10.03671974 -10.03599967 -10.03146659 -10.0228853
 -10.02235051 -10.02167265 -10.01757282 -10.01509544 -10.01389636
 -10.0134861  -10.01330805 -10.01237935 -10.01202864 -10.01199941
 -10.00853868 -10.00818405 -10.00645895 -10.00428337 -10.00305859
 -10.0013507  -10.00034717  -0.86668634  -0.84293381  -0.8092656
  -0.78775537  -0.76319165  -0.74511064  -0.72521644  -0.7143162
  -0.70708764  -0.68153406  -0.64808266  -0.62606915  -0.59949964
  -0.58082925  -0.55908485  -0.55245144  -0.54481961  -0.52232149
  -0.4993029   -0.48952975  -0.47419713  -0.44916628  -0.44208297
  -0.42305735  -0.418087    -0.4062375   -0.3970335   -0.38945869
  -0.38247018  -0.38028925  -0.37153596  -0.36522889  -0.35765757
  -0.34470101  -0.3400232   -0.33216415  -0.32930529  -0.31460844
  -0.30071335  -0.29183229  -0.28678548  -0.26797352  -0.26233329
  -0.25472397  -0.24259902  -0.21817498  -0.20103213  -0.19805133
  -0.19172739  -0.15515233  -0.10985054  -0.01913938   0.02847869
   0.06820972   0.08103511   0.10604436   0.14166616   0.16316832
   0.19613421   0.21135335   0.22643485   0.24226673   0.24956418
   0.27856332   0.29757744   0.30950295   0.31858625   0.33400651
   0.34634057   0.35490777   0.37807069   0.37956558   0.399524
   0.41631843   0.42547202   0.4442157    0.44688639   0.46783909
   0.47688978   0.48030604   0.49718364   0.50665182   0.54500355
   0.56270819   0.56757442   0.58404321   0.61287876   0.62963511
   0.63906998   0.66452516   0.68785339   0.7197953    0.72165016
   0.73086866   0.74139052   0.76908048   0.82825781   0.85476458
   0.86355035   0.88884436   0.96804646   1.03967606]
nelec by numeric integration = 145.99999693571505
    CPU time for vxc     38.32 sec, wall time     15.87 sec
E1 = -4103.9383862754585  Ecoul = 1896.8839531775811  Exc = -124.59166370700618
cycle= 6 E= -835.890250699069  delta_E= -0.000198  |g|= 0.0115  |ddm|= 0.051
    CPU time for cycle= 6     38.73 sec, wall time     15.93 sec
  HOMO = -0.10970461683256  LUMO = -0.0188310542467485
  mo_energy =
[-10.03820431 -10.03636079 -10.03532097 -10.03009918 -10.02301404
 -10.02190215 -10.0205478  -10.01592436 -10.01553102 -10.01427762
 -10.01387274 -10.01288153 -10.01238265 -10.01170234 -10.01097073
 -10.00959384 -10.0082449  -10.00422434 -10.00338072 -10.00328533
 -10.00144707  -9.9996705   -0.86699118  -0.84246473  -0.80889796
  -0.78782238  -0.76304824  -0.7442853   -0.72514402  -0.71428877
  -0.70679608  -0.68106919  -0.64792054  -0.62582247  -0.59928968
  -0.58059885  -0.55908586  -0.5518216   -0.54455207  -0.52228772
  -0.49915928  -0.489463    -0.47392688  -0.44894508  -0.44171364
  -0.42280748  -0.41815489  -0.40602547  -0.39671333  -0.38878899
  -0.38248899  -0.38040553  -0.37145008  -0.36519585  -0.35727583
  -0.34438313  -0.34005968  -0.33241043  -0.32902004  -0.31429564
  -0.30034697  -0.29181184  -0.28683203  -0.26779982  -0.26214848
  -0.25402686  -0.24184665  -0.21796036  -0.20127743  -0.19794317
  -0.19159129  -0.15476004  -0.10970462  -0.01883105   0.0289162
   0.06845825   0.08134969   0.10630984   0.14246612   0.16341153
   0.19585174   0.2113059    0.22633232   0.24230223   0.2497335
   0.27882986   0.29778284   0.30940201   0.3187147    0.3343087
   0.34610828   0.35497375   0.37819368   0.37969707   0.39961314
   0.41652242   0.42572337   0.44439702   0.44741235   0.4683067
   0.47701781   0.48039942   0.49787696   0.50682141   0.54527743
   0.56308273   0.5684244    0.58447374   0.6129426    0.63041787
   0.63909479   0.66492742   0.68847656   0.72041871   0.72182212
   0.73116526   0.74139392   0.76963308   0.8287015    0.85441224
   0.86323766   0.88945728   0.96782428   1.03913149]
nelec by numeric integration = 145.99999693362597
    CPU time for vxc     39.06 sec, wall time     16.01 sec
E1 = -4103.923331725127  Ecoul = 1896.8682282910304  Exc = -124.59104110118746
cycle= 7 E= -835.89029842947  delta_E= -4.77e-05  |g|= 0.00176  |ddm|= 0.0189
    CPU time for cycle= 7     39.59 sec, wall time     16.09 sec
  HOMO = -0.109739267924817  LUMO = -0.0188175936481388
  mo_energy =
[-10.03823084 -10.03620975 -10.0352838  -10.02984636 -10.02287201
 -10.02207939 -10.0209544  -10.01589166 -10.0150353  -10.0142892
 -10.0138727  -10.01314495 -10.01230117 -10.0119613  -10.01110248
 -10.00954786 -10.00792012 -10.0042158  -10.00350268 -10.00337298
 -10.00157039  -9.99967095  -0.86701192  -0.8424429   -0.80891134
  -0.7878528   -0.76300649  -0.74433289  -0.72514267  -0.71431061
  -0.70678865  -0.68104669  -0.647929    -0.6258244   -0.59928102
  -0.58059952  -0.5590913   -0.55185145  -0.54456171  -0.52230574
  -0.49915781  -0.48945213  -0.47391641  -0.44895724  -0.44169734
  -0.42278807  -0.41817578  -0.40603587  -0.39673321  -0.38881758
  -0.38250336  -0.38040318  -0.37143152  -0.36517462  -0.3572539
  -0.34433716  -0.34003436  -0.33238962  -0.32898125  -0.31428164
  -0.30034639  -0.29181252  -0.28687737  -0.26783346  -0.26210931
  -0.25404579  -0.24189023  -0.21796381  -0.2012675   -0.19793674
  -0.19159573  -0.15473993  -0.10973927  -0.01881759   0.02895762
   0.06846425   0.0813436    0.10631077   0.14242946   0.16345703
   0.19582061   0.21134629   0.22635648   0.24234164   0.24975807
   0.27883131   0.29779535   0.30937733   0.31871184   0.33430431
   0.34608998   0.35495509   0.37828885   0.37970587   0.39960508
   0.41651073   0.42569569   0.44432765   0.4473867    0.46829569
   0.47703602   0.48041781   0.4978667    0.50688835   0.54530831
   0.56312362   0.5684024    0.58446691   0.6129217    0.63039123
   0.63910724   0.66493793   0.68847082   0.72038801   0.72177615
   0.73123448   0.74135366   0.76967955   0.82870166   0.8543796
   0.86319812   0.8894138    0.96782305   1.03910979]
nelec by numeric integration = 145.9999969334421
    CPU time for vxc     38.01 sec, wall time     15.78 sec
E1 = -4103.924899987347  Ecoul = 1896.8698442354485  Exc = -124.59108971623655
cycle= 8 E= -835.890299362321  delta_E= -9.33e-07  |g|= 0.000784  |ddm|= 0.00314
    CPU time for cycle= 8     38.46 sec, wall time     15.85 sec
  HOMO = -0.109749628982283  LUMO = -0.0188044610331706
  mo_energy =
[-10.03817559 -10.03621807 -10.03540597 -10.03002224 -10.02289502
 -10.02208775 -10.0209045  -10.01599672 -10.01516451 -10.01438309
 -10.01388652 -10.01302259 -10.01234659 -10.0119529  -10.01101481
 -10.00954523 -10.00800859 -10.00411653 -10.0034028  -10.00338925
 -10.00154203  -9.99977746  -0.86699476  -0.84249767  -0.80892986
  -0.78784394  -0.76303784  -0.74434959  -0.72514075  -0.71430313
  -0.70681487  -0.68106865  -0.64793825  -0.62582072  -0.59930678
  -0.58060918  -0.55909488  -0.55187418  -0.54456884  -0.52230246
  -0.49918116  -0.48946391  -0.47392828  -0.44896861  -0.44172754
  -0.42280862  -0.41817297  -0.40604275  -0.39673844  -0.38882881
  -0.38250785  -0.38039946  -0.37142199  -0.3651908   -0.3572857
  -0.34435313  -0.34002771  -0.33235744  -0.32899274  -0.31430593
  -0.30036329  -0.29181388  -0.28686496  -0.26783492  -0.26213295
  -0.254069    -0.24191296  -0.21797432  -0.20124477  -0.19793866
  -0.19160185  -0.1547643   -0.10974963  -0.01880446   0.02893702
   0.06844719   0.08132824   0.10630374   0.14240866   0.16342636
   0.19585442   0.2113572    0.22638242   0.24233947   0.2497444
   0.27883187   0.29777737   0.30937448   0.31870218   0.33429928
   0.34610066   0.35496194   0.37825272   0.37972923   0.39963543
   0.41651124   0.42570228   0.44433036   0.4473782    0.4682717
   0.47701533   0.48039284   0.49783855   0.5068686    0.54527836
   0.56310255   0.56838866   0.58444542   0.61291243   0.63036499
   0.63908565   0.66490771   0.68844068   0.72036424   0.72177069
   0.73119619   0.74135369   0.76963152   0.82865783   0.85441051
   0.86321579   0.88937536   0.96781022   1.03913329]
nelec by numeric integration = 145.9999969335514
    CPU time for vxc     38.01 sec, wall time     15.85 sec
E1 = -4103.926767569583  Ecoul = 1896.8717718134521  Exc = -124.59114991729436
cycle= 9 E= -835.890299567611  delta_E= -2.05e-07  |g|= 0.00029  |ddm|= 0.00145
    CPU time for cycle= 9     38.57 sec, wall time     15.93 sec
  HOMO = -0.109753793007922  LUMO = -0.0188040532664186
  mo_energy =
[-10.03819495 -10.03625777 -10.03533938 -10.02998275 -10.02287606
 -10.02205132 -10.02087097 -10.01598318 -10.01518173 -10.01435255
 -10.0139088  -10.01301927 -10.01235952 -10.01192372 -10.0110281
 -10.00954296 -10.00801434 -10.00415628 -10.00347988 -10.00341574
 -10.00156834  -9.99977075  -0.8670066   -0.8424798   -0.80892817
  -0.78784814  -0.76303338  -0.74434542  -0.72514527  -0.71430792
  -0.7068128   -0.68107144  -0.64793947  -0.62582175  -0.59930439
  -0.58060934  -0.55909942  -0.55186947  -0.54457437  -0.52230598
  -0.49917908  -0.48946229  -0.47392903  -0.44896823  -0.44172252
  -0.42280821  -0.41817384  -0.40604369  -0.39674141  -0.38883842
  -0.38251097  -0.38040353  -0.37141871  -0.36519065  -0.35727489
  -0.34434904  -0.34002545  -0.33236334  -0.32899285  -0.31430283
  -0.30036211  -0.29181657  -0.28686721  -0.26783472  -0.26212795
  -0.25406116  -0.24190962  -0.21797872  -0.20125086  -0.19794348
  -0.19159997  -0.15477019  -0.10975379  -0.01880405   0.02893522
   0.06844764   0.08132577   0.10630014   0.14241415   0.16343047
   0.19584798   0.21136129   0.22637998   0.24234207   0.24974723
   0.27883367   0.29778327   0.30937171   0.31870807   0.33430356
   0.34609781   0.35496252   0.37825663   0.37973042   0.39963246
   0.41650303   0.42569557   0.44433054   0.44737033   0.46826995
   0.47701246   0.48039299   0.49784203   0.50686797   0.54528257
   0.56310723   0.56837727   0.58444619   0.61290325   0.63035663
   0.63908852   0.66490968   0.68844444   0.7203738    0.72177116
   0.7311958    0.74135061   0.7696338    0.82866976   0.85439719
   0.86320559   0.88938769   0.96781527   1.03912822]
nelec by numeric integration = 145.9999969335233
    CPU time for vxc     37.70 sec, wall time     15.71 sec
E1 = -4103.926375043732  Ecoul = 1896.8713830831177  Exc = -124.59115374197879
cycle= 10 E= -835.890299596779  delta_E= -2.92e-08  |g|= 7.61e-05  |ddm|= 0.000486
    CPU time for cycle= 10     38.17 sec, wall time     15.78 sec
  HOMO = -0.109754665816138  LUMO = -0.0188044275333666
  mo_energy =
[-10.03819475 -10.03624149 -10.03535009 -10.02999207 -10.02289099
 -10.02206555 -10.02088781 -10.01597139 -10.01518808 -10.01436328
 -10.01389519 -10.01302713 -10.01236505 -10.0119284  -10.01100869
 -10.00955984 -10.0080246  -10.00415359 -10.00348612 -10.00341204
 -10.00155767  -9.99976849  -0.86700331  -0.84248544  -0.80893448
  -0.78784875  -0.76303973  -0.74435044  -0.72514596  -0.7143058
  -0.7068137   -0.68107458  -0.64794065  -0.62582264  -0.59930679
  -0.58061102  -0.55909643  -0.5518743   -0.5445748   -0.52230607
  -0.49918063  -0.48946535  -0.47393218  -0.44896752  -0.44172489
  -0.42281015  -0.41817421  -0.40604551  -0.39674104  -0.38884104
  -0.38250815  -0.38040423  -0.37142116  -0.36519048  -0.35727974
  -0.34435455  -0.34002886  -0.33236625  -0.32899659  -0.3143089
  -0.30036542  -0.29181572  -0.28686635  -0.2678318   -0.26213256
  -0.25406719  -0.24191553  -0.21797894  -0.20125206  -0.19794203
  -0.19160229  -0.15477366  -0.10975467  -0.01880443   0.02893229
   0.06844537   0.08133021   0.10629883   0.14240758   0.16342622
   0.19584733   0.21135446   0.22637535   0.24233994   0.24974345
   0.27882922   0.29777975   0.30937484   0.31870305   0.3342987
   0.3460986    0.35496362   0.37825046   0.37972953   0.39963104
   0.4165007    0.42569287   0.44433243   0.44736641   0.46827402
   0.47701349   0.48039264   0.49783788   0.50686542   0.54528084
   0.56310431   0.56837375   0.58444828   0.61290969   0.63035574
   0.63908617   0.66490709   0.68843998   0.7203691    0.72177078
   0.73119165   0.74135252   0.76962896   0.82866341   0.85440073
   0.86320825   0.88938129   0.96780983   1.03912435]
nelec by numeric integration = 145.9999969335212
    CPU time for vxc     38.09 sec, wall time     15.85 sec
E1 = -4103.926520741157  Ecoul = 1896.8715315366694  Exc = -124.59115649985212
cycle= 11 E= -835.890299598525  delta_E= -1.75e-09  |g|= 4.61e-05  |ddm|= 0.000184
    CPU time for cycle= 11     38.43 sec, wall time     15.91 sec
  HOMO = -0.109754921376352  LUMO = -0.0188041937194539
  mo_energy =
[-10.03819414 -10.03624654 -10.03534837 -10.02999007 -10.02288159
 -10.02206014 -10.02088192 -10.01597499 -10.01517948 -10.01436114
 -10.01389929 -10.01302541 -10.01236151 -10.01192795 -10.01101818
 -10.0095533  -10.00801808 -10.00415131 -10.00347401 -10.0034083
 -10.00156572  -9.99977464  -0.86700431  -0.8424842   -0.80893133
  -0.78784804  -0.7630373   -0.74434822  -0.72514503  -0.71430636
  -0.70681255  -0.68107226  -0.64794003  -0.62582217  -0.59930571
  -0.58060993  -0.55909749  -0.55187245  -0.5445737   -0.52230584
  -0.49917979  -0.48946383  -0.47393082  -0.44896776  -0.44172391
  -0.42280879  -0.41817424  -0.40604419  -0.39674056  -0.38883837
  -0.3825089   -0.38040401  -0.37142101  -0.3651907   -0.35727833
  -0.3443521   -0.34002815  -0.33236606  -0.32899492  -0.31430576
  -0.30036404  -0.29181626  -0.28686637  -0.26783223  -0.26213054
  -0.25406518  -0.2419131   -0.21797793  -0.20125201  -0.197942
  -0.19160116  -0.15477149  -0.10975492  -0.01880419   0.02893459
   0.06844676   0.08132912   0.1063004    0.14241056   0.16342787
   0.19584742   0.21135607   0.22637663   0.24234027   0.24974491
   0.27882978   0.29778058   0.30937343   0.3187045    0.33429982
   0.34609782   0.35496288   0.37825371   0.37972872   0.39963046
   0.41650204   0.42569436   0.44433251   0.44736901   0.46827411
   0.47701393   0.48039336   0.49783894   0.50686716   0.54528141
   0.56310625   0.56837751   0.58444829   0.6129088    0.6303576
   0.63908637   0.66490812   0.68844282   0.72037125   0.72177163
   0.73119474   0.74135218   0.76963193   0.82866543   0.85439963
   0.8632077    0.88938302   0.96781096   1.03912546]
nelec by numeric integration = 145.9999969335244
    CPU time for vxc     38.05 sec, wall time     15.81 sec
E1 = -4103.9264239860095  Ecoul = 1896.871432008913  Exc = -124.59115372796123
cycle= 12 E= -835.890299599243  delta_E= -7.18e-10  |g|= 1.19e-05  |ddm|= 7.52e-05
    CPU time for cycle= 12     38.54 sec, wall time     15.89 sec
  HOMO = -0.109754169254875  LUMO = -0.0188031172282293
  mo_energy =
[-10.03819324 -10.03624738 -10.03534789 -10.02998935 -10.02288168
 -10.02206002 -10.02088142 -10.01597534 -10.01517933 -10.01436121
 -10.01390002 -10.01302287 -10.01235944 -10.01192804 -10.01101451
 -10.0095519  -10.00801549 -10.00415038 -10.00347463 -10.00341185
 -10.00156487  -9.99977126  -0.86700399  -0.84248359  -0.80893084
  -0.78784764  -0.76303654  -0.74434748  -0.72514476  -0.71430601
  -0.70681265  -0.6810718   -0.64793959  -0.62582127  -0.59930553
  -0.58060947  -0.55909761  -0.55187197  -0.54457335  -0.52230558
  -0.49917962  -0.48946341  -0.47393017  -0.4489677   -0.44172342
  -0.42280841  -0.41817387  -0.40604424  -0.39674033  -0.38883809
  -0.38250913  -0.38040352  -0.37142004  -0.36519058  -0.35727773
  -0.34435148  -0.34002748  -0.33236517  -0.32899412  -0.31430527
  -0.30036363  -0.29181605  -0.28686622  -0.26783265  -0.26212975
  -0.25406447  -0.24191236  -0.2179779   -0.20125129  -0.19794178
  -0.19160066  -0.1547711   -0.10975417  -0.01880312   0.0289351
   0.06844702   0.0813289    0.10630068   0.14241132   0.16342853
   0.19584816   0.2113569    0.22637742   0.24234055   0.24974524
   0.27883075   0.29778111   0.30937329   0.31870481   0.33430047
   0.34609812   0.35496336   0.37825409   0.37972994   0.39963145
   0.41650238   0.42569508   0.44433185   0.44736921   0.46827326
   0.47701379   0.48039329   0.49783977   0.506868     0.54528219
   0.56310698   0.56837785   0.584448     0.61290795   0.63035812
   0.63908679   0.66490886   0.68844328   0.72037153   0.72177161
   0.73119513   0.74135233   0.76963272   0.82866605   0.85440002
   0.86320796   0.88938384   0.96781169   1.03912645]
nelec by numeric integration = 145.99999693352126
    CPU time for vxc     38.55 sec, wall time     16.03 sec
E1 = -4103.926392395113  Ecoul = 1896.8714001165627  Exc = -124.59115342654655
cycle= 13 E= -835.890299599282  delta_E= -3.91e-11  |g|= 5.99e-06  |ddm|= 2.76e-05
    CPU time for cycle= 13     39.04 sec, wall time     16.10 sec
  HOMO = -0.109754772116307  LUMO = -0.018803762838777
  mo_energy =
[-10.03819461 -10.03624608 -10.03534736 -10.02999015 -10.02288079
 -10.02205972 -10.02088175 -10.01597637 -10.01517981 -10.01436186
 -10.01389935 -10.01302569 -10.01236222 -10.01192763 -10.0110169
 -10.00955402 -10.00801866 -10.0041523  -10.00347572 -10.00340861
 -10.0015639   -9.99977381  -0.86700439  -0.84248414  -0.80893153
  -0.78784819  -0.76303743  -0.74434816  -0.72514495  -0.71430651
  -0.70681268  -0.68107244  -0.64793999  -0.62582204  -0.59930586
  -0.58061003  -0.55909752  -0.55187251  -0.54457393  -0.52230589
  -0.49917997  -0.48946394  -0.47393089  -0.44896769  -0.44172399
  -0.42280891  -0.41817426  -0.4060441   -0.39674075  -0.38883885
  -0.38250898  -0.38040399  -0.37142061  -0.36519075  -0.35727816
  -0.3443519   -0.34002763  -0.33236556  -0.32899482  -0.31430591
  -0.300364    -0.2918161   -0.28686644  -0.26783247  -0.26213045
  -0.25406505  -0.24191314  -0.21797797  -0.20125192  -0.19794206
  -0.19160124  -0.15477166  -0.10975477  -0.01880376   0.02893461
   0.0684467    0.08132883   0.10630034   0.14241062   0.16342793
   0.19584747   0.21135661   0.22637709   0.24234041   0.24974489
   0.2788301    0.29778071   0.30937351   0.31870468   0.33430008
   0.34609786   0.35496309   0.37825373   0.37972945   0.39963103
   0.41650194   0.42569416   0.44433231   0.44736858   0.46827363
   0.47701388   0.48039332   0.49783889   0.50686721   0.54528139
   0.56310633   0.56837695   0.58444795   0.61290859   0.630357
   0.63908655   0.66490812   0.68844268   0.72037126   0.72177146
   0.73119459   0.74135212   0.76963155   0.82866535   0.85439967
   0.86320748   0.88938298   0.96781077   1.03912522]
nelec by numeric integration = 145.99999693352262
    CPU time for vxc     38.33 sec, wall time     15.96 sec
E1 = -4103.926445103814  Ecoul = 1896.8714541613754  Exc = -124.59115476263209
Extra cycle  E= -835.890299599256  delta_E= 2.59e-11  |g|= 1.14e-05  |ddm|= 2.64e-05
    CPU time for scf_cycle    587.37 sec, wall time    240.93 sec
    CPU time for SCF    587.37 sec, wall time    240.93 sec
converged SCF energy = -835.890299599256
nelec by numeric integration = 145.99999693352262
    CPU time for vxc     38.31 sec, wall time     15.90 sec
 ** Mulliken pop  **
pop of  0 C 1s            1.99078
pop of  0 C 2s            1.14418
pop of  0 C 2px           1.00370
pop of  0 C 2py           0.95084
pop of  0 C 2pz           0.92121
pop of  1 C 1s            1.99094
pop of  1 C 2s            1.14199
pop of  1 C 2px           0.97495
pop of  1 C 2py           0.96299
pop of  1 C 2pz           0.93193
pop of  2 C 1s            1.99085
pop of  2 C 2s            1.15690
pop of  2 C 2px           0.98046
pop of  2 C 2py           0.95107
pop of  2 C 2pz           0.97368
pop of  3 C 1s            1.99126
pop of  3 C 2s            1.20080
pop of  3 C 2px           0.97444
pop of  3 C 2py           0.92739
pop of  3 C 2pz           0.93732
pop of  4 C 1s            1.99096
pop of  4 C 2s            1.16684
pop of  4 C 2px           1.00348
pop of  4 C 2py           0.93553
pop of  4 C 2pz           0.99886
pop of  5 C 1s            1.99100
pop of  5 C 2s            1.13254
pop of  5 C 2px           1.01979
pop of  5 C 2py           0.94784
pop of  5 C 2pz           1.01590
pop of  6 C 1s            1.99076
pop of  6 C 2s            1.15359
pop of  6 C 2px           0.99429
pop of  6 C 2py           0.99716
pop of  6 C 2pz           0.95837
pop of  7 C 1s            1.99059
pop of  7 C 2s            1.12926
pop of  7 C 2px           1.02417
pop of  7 C 2py           1.00739
pop of  7 C 2pz           0.96474
pop of  8 C 1s            1.99060
pop of  8 C 2s            1.12592
pop of  8 C 2px           1.01410
pop of  8 C 2py           0.92393
pop of  8 C 2pz           0.95344
pop of  9 C 1s            1.99058
pop of  9 C 2s            1.08918
pop of  9 C 2px           0.99126
pop of  9 C 2py           0.96353
pop of  9 C 2pz           0.96160
pop of  10 C 1s           1.99136
pop of  10 C 2s           1.22438
pop of  10 C 2px          0.94210
pop of  10 C 2py          0.92261
pop of  10 C 2pz          0.96221
pop of  11 C 1s           1.99060
pop of  11 C 2s           1.04940
pop of  11 C 2px          1.04345
pop of  11 C 2py          1.00976
pop of  11 C 2pz          1.01777
pop of  12 C 1s           1.99154
pop of  12 C 2s           1.13283
pop of  12 C 2px          0.97800
pop of  12 C 2py          0.96650
pop of  12 C 2pz          0.93603
pop of  13 C 1s           1.99125
pop of  13 C 2s           1.08191
pop of  13 C 2px          0.99297
pop of  13 C 2py          0.98864
pop of  13 C 2pz          0.95582
pop of  14 C 1s           1.99091
pop of  14 C 2s           1.06684
pop of  14 C 2px          1.02966
pop of  14 C 2py          0.99977
pop of  14 C 2pz          0.98902
pop of  15 C 1s           1.99131
pop of  15 C 2s           1.20679
pop of  15 C 2px          0.96935
pop of  15 C 2py          0.92152
pop of  15 C 2pz          0.94443
pop of  16 C 1s           1.99018
pop of  16 C 2s           1.03745
pop of  16 C 2px          1.03619
pop of  16 C 2py          0.97990
pop of  16 C 2pz          0.99202
pop of  17 C 1s           1.99059
pop of  17 C 2s           1.08205
pop of  17 C 2px          1.00322
pop of  17 C 2py          0.94518
pop of  17 C 2pz          0.97551
pop of  18 C 1s           1.99151
pop of  18 C 2s           1.22343
pop of  18 C 2px          0.93394
pop of  18 C 2py          0.92684
pop of  18 C 2pz          0.93084
pop of  19 C 1s           1.99052
pop of  19 C 2s           1.11114
pop of  19 C 2px          1.02574
pop of  19 C 2py          0.96503
pop of  19 C 2pz          0.99886
pop of  20 C 1s           1.99084
pop of  20 C 2s           1.16416
pop of  20 C 2px          1.02126
pop of  20 C 2py          0.98482
pop of  20 C 2pz          0.95200
pop of  21 C 1s           1.99090
pop of  21 C 2s           1.13630
pop of  21 C 2px          0.97366
pop of  21 C 2py          0.99081
pop of  21 C 2pz          0.96346
pop of  22 H 1s           0.93170
pop of  23 H 1s           0.93958
pop of  24 H 1s           0.90067
pop of  25 H 1s           0.90147
pop of  26 H 1s           0.90392
pop of  27 H 1s           0.89424
pop of  28 H 1s           0.92547
pop of  29 H 1s           0.91897
pop of  30 H 1s           0.94285
pop of  31 H 1s           0.95765
pop of  32 H 1s           0.94583
pop of  33 H 1s           0.90852
pop of  34 H 1s           0.89946
pop of  35 H 1s           0.93771
 ** Mulliken atomic charges  **
charge of    0C =     -0.01071
charge of    1C =     -0.00279
charge of    2C =     -0.05295
charge of    3C =     -0.03121
charge of    4C =     -0.09567
charge of    5C =     -0.10707
charge of    6C =     -0.09416
charge of    7C =     -0.11615
charge of    8C =     -0.00800
charge of    9C =      0.00384
charge of   10C =     -0.04265
charge of   11C =     -0.11098
charge of   12C =     -0.00490
charge of   13C =     -0.01060
charge of   14C =     -0.07620
charge of   15C =     -0.03339
charge of   16C =     -0.03574
charge of   17C =      0.00345
charge of   18C =     -0.00657
charge of   19C =     -0.09129
charge of   20C =     -0.11309
charge of   21C =     -0.05513
charge of   22H =      0.06830
charge of   23H =      0.06042
charge of   24H =      0.09933
charge of   25H =      0.09853
charge of   26H =      0.09608
charge of   27H =      0.10576
charge of   28H =      0.07453
charge of   29H =      0.08103
charge of   30H =      0.05715
charge of   31H =      0.04235
charge of   32H =      0.05417
charge of   33H =      0.09148
charge of   34H =      0.10054
charge of   35H =      0.06229
Dipole moment(X, Y, Z, Debye): -0.11806, -0.16607,  0.66371
nelec by numeric integration = 145.99999693352262
    CPU time for vxc     37.82 sec, wall time     15.86 sec
E1 = -4103.926445103814  Ecoul = 1896.8714541613754  Exc = -124.59115476263207
nelec by numeric integration = 145.99999693352262
    CPU time for vxc     38.31 sec, wall time     16.00 sec
E1 = -4103.926445103814  Ecoul = 1896.8714541613758  Exc = -124.59115476263209
