System: uname_result(system='Linux', node='cosmopc18', release='5.15.0-97-generic', version='#107-Ubuntu SMP Wed Feb 7 13:26:48 UTC 2024', machine='x86_64')  Threads 4
Python 3.11.8 (main, Feb 26 2024, 21:39:34) [GCC 11.2.0]
numpy 1.26.4  scipy 1.11.4
Date: Tue Apr  9 14:26:07 2024
PySCF version 2.3.0
PySCF path  /home/saade/miniconda3/envs/tutorial/lib/python3.11/site-packages/pyscf

[ENV] PYSCFAD_BACKEND torch
[CONFIG] conf_file None
[INPUT] verbose = 5
[INPUT] max_memory = 4000 
[INPUT] num. atoms = 36
[INPUT] num. electrons = 146
[INPUT] charge = 0
[INPUT] spin (= nelec alpha-beta = 2S) = 0
[INPUT] symmetry False subgroup None
[INPUT] Mole.unit = angstrom
[INPUT] Symbol           X                Y                Z      unit          X                Y                Z       unit  Magmom
[INPUT]  1 C     -0.019385000000   3.533955000000   0.838259000000 AA   -0.036632340925   6.678207086537   1.584079931452 Bohr   0.0
[INPUT]  2 C     -0.089177000000   3.760908000000  -0.923318000000 AA   -0.168520106610   7.107086099686  -1.744818145881 Bohr   0.0
[INPUT]  3 C     -0.030004000000   4.999702000000   1.341640000000 AA   -0.056699342641   9.448067484440   2.535332157761 Bohr   0.0
[INPUT]  4 C      0.099671000000   2.396172000000   1.495190000000 AA    0.188350892562   4.528108827351   2.825499604188 Bohr   0.0
[INPUT]  5 C     -0.076985000000   4.960947000000  -1.416636000000 AA   -0.145480565700   9.374831148483  -2.677054058199 Bohr   0.0
[INPUT]  6 C      0.064584000000   2.445222000000  -1.581573000000 AA    0.122046072029   4.620799893761  -2.988739816007 Bohr   0.0
[INPUT]  7 C     -0.031422000000   5.994352000000  -0.780474000000 AA   -0.059378974286  11.327683574239  -1.474882107344 Bohr   0.0
[INPUT]  8 C     -0.031505000000   5.997451000000   0.777279000000 AA   -0.059535821554  11.333539835499   1.468844432376 Bohr   0.0
[INPUT]  9 C      0.028319000000   1.313962000000   0.626592000000 AA    0.053515154122   2.483028318086   1.184087271843 Bohr   0.0
[INPUT] 10 C     -0.002143000000   1.360216000000  -0.720108000000 AA   -0.004049683085   2.570435710251  -1.360806900108 Bohr   0.0
[INPUT] 11 C      0.135240000000  -0.164007000000   1.210534000000 AA    0.255566561086  -0.309928312512   2.287577724474 Bohr   0.0
[INPUT] 12 C      0.017272000000  -0.089582000000  -1.514870000000 AA    0.032639349623  -0.169285445691  -2.862689414320 Bohr   0.0
[INPUT] 13 C     -0.157636000000  -1.237033000000   0.676441000000 AA   -0.297888867372  -2.337653577049   1.278288229427 Bohr   0.0
[INPUT] 14 C     -0.079439000000  -1.207585000000  -0.662131000000 AA   -0.150117953609  -2.282004922133  -1.251246248584 Bohr   0.0
[INPUT] 15 C     -0.124602000000  -2.285785000000   1.504724000000 AA   -0.235463654573  -4.319507629639   2.843516253060 Bohr   0.0
[INPUT] 16 C     -0.010548000000  -2.418483000000  -1.292236000000 AA   -0.019932831162  -4.570270506916  -2.441972128303 Bohr   0.0
[INPUT] 17 C     -0.050352000000  -3.646514000000   0.555652000000 AA   -0.095151489824  -6.890912769392   1.050030100567 Bohr   0.0
[INPUT] 18 C      0.000299000000  -3.597545000000  -0.569577000000 AA    0.000565028111  -6.798374770798  -1.076344536851 Bohr   0.0
[INPUT] 19 C      0.067537000000  -4.789306000000   1.633670000000 AA    0.127626433275  -9.050476666736   3.087188877918 Bohr   0.0
[INPUT] 20 C     -0.075231000000  -4.950181000000  -1.404237000000 AA   -0.142165986077  -9.354486357026  -2.653623343981 Bohr   0.0
[INPUT] 21 C      0.128191000000  -5.942149000000   0.803225000000 AA    0.242245881634 -11.229034201358   1.517875266404 Bohr   0.0
[INPUT] 22 C     -0.132103000000  -6.033466000000  -0.670627000000 AA   -0.249638490233 -11.401598321875  -1.267301361739 Bohr   0.0
[INPUT] 23 H      0.179987000000   4.907187000000   2.401281000000 AA    0.340126135982   9.273239472026   4.537763438122 Bohr   0.0
[INPUT] 24 H     -0.099359000000   2.396487000000   2.621267000000 AA   -0.187761298011   4.528704091081   4.953476729360 Bohr   0.0
[INPUT] 25 H      0.027864000000   5.014520000000  -2.383515000000 AA    0.052655328735   9.476069446154  -4.504190563793 Bohr   0.0
[INPUT] 26 H      0.020841000000   2.276923000000  -2.451692000000 AA    0.039383782162   4.302760876723  -4.633026421787 Bohr   0.0
[INPUT] 27 H     -0.035148000000   6.961697000000  -1.233771000000 AA   -0.066420093826  13.155700692206  -2.331489290431 Bohr   0.0
[INPUT] 28 H     -0.030135000000   7.144023000000   1.280376000000 AA   -0.056946896764  13.500246897594   2.419559976466 Bohr   0.0
[INPUT] 29 H     -0.079409000000   0.038446000000   2.491066000000 AA   -0.150061261826   0.072652410585   4.707432498216 Bohr   0.0
[INPUT] 30 H      0.067677000000  -0.055057000000  -2.447564000000 AA    0.127890994932  -0.104042651240  -4.625225632345 Bohr   0.0
[INPUT] 31 H      0.232415000000  -2.541272000000   2.476454000000 AA    0.439200697241  -4.802308088026   4.679819820084 Bohr   0.0
[INPUT] 32 H      0.238721000000  -2.513166000000  -2.540825000000 AA    0.451117310182  -4.749195445569  -4.801463380448 Bohr   0.0
[INPUT] 33 H      0.060516000000  -4.870177000000   2.421132000000 AA    0.114358666154  -9.203300708156   4.575276391420 Bohr   0.0
[INPUT] 34 H     -0.109618000000  -5.011250000000  -2.512844000000 AA   -0.207147998323  -9.469890041727  -4.748586953757 Bohr   0.0
[INPUT] 35 H      0.052800000000  -7.157708000000   1.323057000000 AA    0.099777539377 -13.526107799608   2.500215377189 Bohr   0.0
[INPUT] 36 H     -0.301510000000  -6.852050000000  -1.378856000000 AA   -0.569771323818 -12.948497891826  -2.605660205213 Bohr   0.0
[INPUT] ---------------- BASIS SET ---------------- 
[INPUT] l, kappa, [nprim/nctr], expnt,             c_1 c_2 ...
[INPUT] H
[INPUT] 0    0    [3    /1   ]  3.42525091        0.15432897
                                0.62391373        0.53532814
                                0.1688554         0.44463454
[INPUT] C
[INPUT] 0    0    [3    /1   ]  71.616837         0.15432897
                                13.045096         0.53532814
                                3.5305122         0.44463454
[INPUT] 0    0    [3    /1   ]  2.9412494         -0.09996723
                                0.6834831         0.39951283
                                0.2222899         0.70011547
[INPUT] 1    0    [3    /1   ]  2.9412494         0.15591627
                                0.6834831         0.60768372
                                0.2222899         0.39195739

nuclear repulsion = 1502.56559065303
number of shells = 80
number of NR pGTOs = 372
number of NR cGTOs = 124
basis = sto3g
ecp = {}
CPU time:     41625.94
atom C rad-grids = 99, ang-grids = [ 50  50  50  50  50  50  50  50  50  50  50  50  50  50  50  50  50  50
  50  50  50  50  50  50  50  50  50  50  50  50  50  86  86  86  86  86
  86  86  86  86  86  86  86 434 434 434 434 434 434 434 434 434 590 590
 590 590 590 590 590 590 590 590 590 590 590 590 590 590 590 590 590 590
 590 590 590 590 590 590 590 434 434 434 434 434 434 434 434 434 434 434
 434 434 434 434 434 434 434 434 434]
atom H rad-grids = 99, ang-grids = [ 50  50  50  50  50  50  50  50  50  50  50  50  50  50  50  50  50  50
  50  50  50  50  50  50  50  50  50  50  86  86  86  86  86  86  86 434
 434 434 434 434 434 434 434 590 590 590 590 590 590 590 590 590 590 590
 590 590 590 590 590 590 590 590 590 590 590 590 590 590 590 434 434 434
 434 434 434 434 434 434 434 434 434 434 434 434 434 434 434 434 434 434
 434 434 434 434 434 434 434 434 434]
tot_boxes 5440, boxes in each direction [ 8 30 15]
Padding 0 grids
tot grids = 1157832


******** <class 'pyscf.dft.rks.RKS'> ********
method = RKS
initial guess = minao
damping factor = 0
level_shift factor = 0
DIIS = <class 'pyscf.scf.diis.CDIIS'>
diis_start_cycle = 1
diis_space = 8
SCF conv_tol = 1e-10
SCF conv_tol_grad = None
SCF max_cycles = 50
direct_scf = True
direct_scf_tol = 1e-13
chkfile to save SCF result = /home/saade/mlelec/tutorials/tmp_m0gc6rd
max_memory 4000 MB (current use 690 MB)
XC library pyscf.dft.libxc version 6.1.0
    S. Lehtola, C. Steigemann, M. J.T. Oliveira, and M. A.L. Marques.,  SoftwareX 7, 1–5 (2018)
XC functionals = b3lypg
    P. J. Stephens, F. J. Devlin, C. F. Chabalowski, and M. J. Frisch.,  J. Phys. Chem. 98, 11623 (1994)
radial grids: 
    Treutler-Ahlrichs [JCP 102, 346 (1995); DOI:10.1063/1.469408] (M4) radial grids
    
becke partition: Becke, JCP 88, 2547 (1988); DOI:10.1063/1.454033
pruning grids: <function nwchem_prune at 0x7f9db5616ca0>
grids dens level: 3
symmetrized grids: False
atomic radii adjust function: <function treutler_atomic_radii_adjust at 0x7f9db5617380>
User specified grid scheme (99, 590)
small_rho_cutoff = 1e-07
Set gradient conv threshold to 1e-05
Initial guess from minao.
nelec by numeric integration = 145.26772639050802
    CPU time for vxc     38.18 sec, wall time     16.32 sec
E1 = -4104.331683509703  Ecoul = 1886.3162535683873  Exc = -126.1959960012936
init E= -841.645835289581
cond(S) = 27.08510801965554
    CPU time for initialize scf     49.06 sec, wall time     18.96 sec
  HOMO = -0.195879607688188  LUMO = -0.154339083905269
  mo_energy =
[-1.01568922e+01 -1.01520984e+01 -1.01488705e+01 -1.01315669e+01
 -1.01303003e+01 -1.01236412e+01 -1.01220050e+01 -1.01185318e+01
 -1.01147855e+01 -1.01089696e+01 -1.01062985e+01 -1.01060085e+01
 -1.01049206e+01 -1.01017433e+01 -1.01007622e+01 -1.00971092e+01
 -1.00930757e+01 -1.00893459e+01 -1.00886995e+01 -1.00863191e+01
 -1.00813731e+01 -1.00640629e+01 -1.12333603e+00 -1.07347887e+00
 -1.05003813e+00 -1.00653403e+00 -9.69400431e-01 -9.48200597e-01
 -9.23637575e-01 -9.02558238e-01 -8.83195283e-01 -8.52120556e-01
 -7.85257375e-01 -7.71328519e-01 -7.34602549e-01 -7.21251519e-01
 -6.97238112e-01 -6.87386467e-01 -6.63469402e-01 -6.26211793e-01
 -6.08876518e-01 -5.90608188e-01 -5.73630999e-01 -5.59663590e-01
 -5.40283205e-01 -5.36668394e-01 -5.32269226e-01 -5.15043983e-01
 -5.08073984e-01 -4.96227648e-01 -4.86777470e-01 -4.68146339e-01
 -4.63897939e-01 -4.57899078e-01 -4.53837742e-01 -4.36842016e-01
 -4.25776145e-01 -4.21508843e-01 -4.15066107e-01 -4.00765575e-01
 -3.90776110e-01 -3.74678174e-01 -3.70862113e-01 -3.57152154e-01
 -3.49887434e-01 -3.42093590e-01 -3.22652449e-01 -3.02078779e-01
 -2.92294012e-01 -2.86616029e-01 -2.74661922e-01 -2.59397015e-01
 -1.95879608e-01 -1.54339084e-01 -9.92385974e-02 -7.20174139e-02
 -5.49853802e-02 -3.40710156e-02  7.60234653e-03  3.69177244e-02
  5.49349824e-02  6.65960315e-02  8.34581693e-02  1.05681840e-01
  1.11180061e-01  1.33707386e-01  1.38788631e-01  1.44471639e-01
  1.55673330e-01  1.66905749e-01  1.77831836e-01  1.93555534e-01
  1.96286145e-01  2.26912320e-01  2.52427565e-01  2.65954265e-01
  2.69773561e-01  2.81624878e-01  2.94013750e-01  2.98306853e-01
  3.13490851e-01  3.70332374e-01  3.82910875e-01  4.04926874e-01
  4.29700568e-01  4.50529054e-01  4.62381204e-01  4.71142061e-01
  4.95329323e-01  5.22731492e-01  5.34894284e-01  5.67287845e-01
  5.91252476e-01  6.00173681e-01  6.33391008e-01  6.50636931e-01
  6.55717585e-01  6.79730270e-01  7.27767367e-01  7.49193604e-01
  7.68324570e-01  8.25154763e-01  9.10979764e-01  9.63262340e-01]
nelec by numeric integration = 146.00000411471393
    CPU time for vxc     42.17 sec, wall time     18.09 sec
E1 = -4119.7346125860495  Ecoul = 1906.6044036034386  Exc = -124.84181120960308
cycle= 1 E= -835.406429539185  delta_E= 6.24  |g|= 0.305  |ddm|= 9.31
    CPU time for cycle= 1     42.47 sec, wall time     18.15 sec
  HOMO = -0.0630630049062369  LUMO = 0.0111659711465991
  mo_energy =
[-10.05322736 -10.03199006 -10.03098345 -10.021838    -9.99798858
  -9.99791868  -9.99729962  -9.99595527  -9.99437805  -9.9938693
  -9.98819724  -9.98605545  -9.97318193  -9.96623343  -9.96605741
  -9.96339227  -9.96196113  -9.96159161  -9.954465    -9.94925938
  -9.93224649  -9.92303761  -0.83192095  -0.82601497  -0.79566964
  -0.7771689   -0.75385682  -0.72888247  -0.71714331  -0.70386576
  -0.68752302  -0.66849794  -0.60988483  -0.60287351  -0.58315091
  -0.56881372  -0.55092131  -0.5406289   -0.53334778  -0.49153017
  -0.47923973  -0.47603056  -0.44998588  -0.4415437   -0.42935163
  -0.42222408  -0.4176709   -0.40215722  -0.40000902  -0.37814204
  -0.35850522  -0.35826906  -0.35308588  -0.34467572  -0.33840355
  -0.33646152  -0.31860982  -0.31266594  -0.30320652  -0.30005496
  -0.28303759  -0.2716295   -0.25912095  -0.24801859  -0.23253219
  -0.22185305  -0.21323463  -0.20158719  -0.1815233   -0.16653698
  -0.16043837  -0.14535476  -0.063063     0.01116597   0.0562691
   0.07488192   0.09750663   0.1410592    0.15897794   0.18965721
   0.21064514   0.22462241   0.23579627   0.24198271   0.25144644
   0.27808831   0.30078528   0.30767771   0.31636489   0.32507434
   0.32915173   0.33515904   0.35810184   0.37880224   0.40616878
   0.40817465   0.42073075   0.43745404   0.44111068   0.46882837
   0.47218063   0.50433509   0.54175554   0.57302558   0.58349187
   0.59552024   0.61523097   0.62053828   0.6661376    0.67026732
   0.68390078   0.7202329    0.75010618   0.75531986   0.78323496
   0.82225265   0.83927084   0.87176489   0.890929     0.90444506
   0.96858489   0.98359133   1.0799726    1.16672094]
nelec by numeric integration = 146.0000042918927
    CPU time for vxc     38.17 sec, wall time     15.92 sec
E1 = -4113.876901616526  Ecoul = 1900.6088535042204  Exc = -124.68408424061758
cycle= 2 E= -835.386541699895  delta_E= 0.0199  |g|= 0.396  |ddm|= 1.08
    CPU time for cycle= 2     38.79 sec, wall time     16.02 sec
  HOMO = -0.0936361550740726  LUMO = -0.0137693870441293
  mo_energy =
[-10.04352387 -10.03231337 -10.030627   -10.02675997 -10.02252079
 -10.02219301 -10.01339938 -10.01327646 -10.01260284 -10.00771689
 -10.00680351 -10.00625911 -10.00235039 -10.00040236  -9.99861855
  -9.99691749  -9.99666157  -9.99416526  -9.98804643  -9.98752351
  -9.98326488  -9.95910645  -0.87327999  -0.8294998   -0.82047735
  -0.79095145  -0.7606153   -0.75178082  -0.73102954  -0.72065548
  -0.70781986  -0.67853459  -0.6361842   -0.61388309  -0.59728691
  -0.58856754  -0.56812087  -0.55261496  -0.53402105  -0.50547894
  -0.50009198  -0.48137734  -0.4660884   -0.45166418  -0.43989611
  -0.43628732  -0.42788346  -0.41824051  -0.40635132  -0.39490295
  -0.38414648  -0.36972892  -0.36831117  -0.36181288  -0.34444086
  -0.33915288  -0.32906598  -0.32593805  -0.31902356  -0.30674898
  -0.28858377  -0.2840763   -0.26733883  -0.26346147  -0.25919107
  -0.24029943  -0.22192213  -0.2089842   -0.1996371   -0.19523481
  -0.17797583  -0.15432141  -0.09363616  -0.01376939   0.04217204
   0.06234196   0.08835227   0.11355085   0.14999722   0.18772675
   0.2004778    0.20866529   0.22606671   0.24713835   0.25361444
   0.26488424   0.27297981   0.29100691   0.30719954   0.30939702
   0.31329662   0.33259775   0.33771049   0.35815542   0.40001994
   0.40300663   0.4098913    0.41469836   0.42525512   0.44114627
   0.4602933    0.50302885   0.52069788   0.55717525   0.57489976
   0.58860614   0.60734622   0.61679429   0.65254119   0.66826897
   0.67061172   0.70518887   0.73550106   0.74703001   0.77494708
   0.79828039   0.80508936   0.83052025   0.89041597   0.89772326
   0.91331194   0.9406979    1.07201754   1.1230482 ]
nelec by numeric integration = 146.00000419593326
    CPU time for vxc     38.30 sec, wall time     15.88 sec
E1 = -4115.851157600801  Ecoul = 1902.6066019467855  Exc = -124.72346680391499
cycle= 3 E= -835.402431804902  delta_E= -0.0159  |g|= 0.332  |ddm|= 1.09
    CPU time for cycle= 3     38.73 sec, wall time     15.96 sec
  HOMO = -0.0959730213141364  LUMO = -0.0211996468278994
  mo_energy =
[-10.04006984 -10.03840184 -10.03747105 -10.03454188 -10.02813698
 -10.02584442 -10.01817174 -10.01740079 -10.01720267 -10.01674287
 -10.01493023 -10.01450635 -10.01243457 -10.01100199 -10.01035089
 -10.00817173 -10.00615023 -10.00505126 -10.00318552 -10.00186181
 -10.00003661  -9.98402698  -0.87733954  -0.83698398  -0.82718437
  -0.79555415  -0.76807016  -0.75855064  -0.74104635  -0.7250481
  -0.71359625  -0.68365775  -0.63538714  -0.62849654  -0.59908573
  -0.59446351  -0.57342342  -0.5583315   -0.5395459   -0.50739211
  -0.50523226  -0.48621039  -0.46968592  -0.45442094  -0.44341595
  -0.43974011  -0.43320553  -0.42828094  -0.41060762  -0.39850792
  -0.38677208  -0.37652873  -0.37228853  -0.36784226  -0.3510097
  -0.34409818  -0.33361972  -0.33198522  -0.33050783  -0.30990914
  -0.29271895  -0.29081891  -0.2746699   -0.27171645  -0.25972744
  -0.24815957  -0.23163013  -0.21371242  -0.20158323  -0.20023306
  -0.18436527  -0.15813435  -0.09597302  -0.02119965   0.03868682
   0.05675823   0.08160161   0.10691092   0.14242722   0.18200263
   0.19463175   0.20344897   0.22295404   0.24431595   0.25062759
   0.26526798   0.2765341    0.27987541   0.29954765   0.30039587
   0.31207737   0.32788073   0.33185706   0.35528003   0.39973269
   0.40298302   0.40819882   0.40948437   0.41945359   0.43555667
   0.45504749   0.49960613   0.51432578   0.55055647   0.56561851
   0.58358611   0.60047158   0.60543132   0.6356437    0.65757101
   0.66200253   0.69592675   0.732463     0.73852529   0.76955375
   0.79141668   0.80068626   0.82461357   0.88201021   0.89007521
   0.91732532   0.94475441   1.06301743   1.10855402]
nelec by numeric integration = 146.00000421540372
    CPU time for vxc     38.38 sec, wall time     16.00 sec
E1 = -4116.417013601696  Ecoul = 1903.1455285416803  Exc = -124.73124853392105
cycle= 4 E= -835.437142940909  delta_E= -0.0347  |g|= 0.14  |ddm|= 0.769
    CPU time for cycle= 4     38.88 sec, wall time     16.08 sec
  HOMO = -0.094511297937625  LUMO = -0.0201036658799571
  mo_energy =
[-10.03730017 -10.03323367 -10.02967967 -10.02614508 -10.02542574
 -10.02518059 -10.02412209 -10.02375664 -10.02249898 -10.02181659
 -10.02112215 -10.01862088 -10.01745195 -10.01700338 -10.01496671
 -10.01338479 -10.00942084 -10.00922853 -10.00825173 -10.00455388
  -9.9986471   -9.99593399  -0.87375544  -0.84308069  -0.82738416
  -0.79869904  -0.77355023  -0.75685161  -0.74042067  -0.72468164
  -0.71163573  -0.68694279  -0.6352144   -0.62620161  -0.60108956
  -0.59324323  -0.57278562  -0.56035311  -0.54490903  -0.50883429
  -0.50226559  -0.48896639  -0.47020773  -0.45691626  -0.44271102
  -0.43945277  -0.43425518  -0.42668664  -0.41526472  -0.39763321
  -0.38550803  -0.37784838  -0.37190094  -0.36936318  -0.35660596
  -0.3474414   -0.33499516  -0.33200251  -0.32803756  -0.31555953
  -0.29537603  -0.29154571  -0.27814312  -0.27222048  -0.26116227
  -0.24746779  -0.2315788   -0.21905472  -0.20304302  -0.20035767
  -0.18408221  -0.16347569  -0.0945113   -0.02010367   0.03423937
   0.05642243   0.07921498   0.10931236   0.14074007   0.17499407
   0.19256211   0.20466454   0.21761886   0.23886927   0.24897013
   0.26195567   0.27621504   0.28196678   0.2966093    0.30476045
   0.31240868   0.32194663   0.3321729    0.3549065    0.39684329
   0.4027109    0.40629752   0.41081164   0.41760357   0.43640096
   0.45042479   0.49622549   0.51691491   0.55018436   0.56550946
   0.58230473   0.5972824    0.60533808   0.64179163   0.65585778
   0.66047221   0.69930819   0.73012115   0.73514713   0.76695673
   0.79149521   0.80169229   0.82718343   0.87257731   0.88499314
   0.91756083   0.94955544   1.05508058   1.11461274]
nelec by numeric integration = 146.00000421340212
    CPU time for vxc     38.20 sec, wall time     15.85 sec
E1 = -4116.427494420459  Ecoul = 1903.152140815245  Exc = -124.73470957960686
cycle= 5 E= -835.444472531793  delta_E= -0.00733  |g|= 0.0289  |ddm|= 0.277
    CPU time for cycle= 5     38.74 sec, wall time     15.93 sec
  HOMO = -0.0948562413091563  LUMO = -0.0197111716682272
  mo_energy =
[-10.03462493 -10.03040291 -10.02755015 -10.0229339  -10.02241666
 -10.02209309 -10.02204074 -10.0215706  -10.02010936 -10.01952057
 -10.01929862 -10.01875386 -10.01837828 -10.01833462 -10.01471484
 -10.01224724 -10.01147725 -10.00770097 -10.00525963 -10.00121789
  -9.99923018  -9.99919276  -0.87232761  -0.84079194  -0.82532329
  -0.79814379  -0.77127287  -0.75586237  -0.73964766  -0.72450518
  -0.71193914  -0.68591551  -0.63443696  -0.62590974  -0.6004801
  -0.5924851   -0.5722936   -0.55964773  -0.5430875   -0.50752479
  -0.50215846  -0.48795934  -0.46965851  -0.45605173  -0.44273803
  -0.43919051  -0.4339579   -0.42600749  -0.41341848  -0.39752202
  -0.38473297  -0.37762181  -0.37118006  -0.36865711  -0.35482241
  -0.34601989  -0.33334447  -0.33045817  -0.32767261  -0.31457458
  -0.29456683  -0.2909265   -0.27635774  -0.27246449  -0.26102866
  -0.24647006  -0.23072586  -0.21775828  -0.20278742  -0.19971485
  -0.18398915  -0.16274041  -0.09485624  -0.01971117   0.03498875
   0.05705247   0.07959764   0.10938237   0.1427276    0.17688755
   0.19340991   0.20577867   0.2186829    0.24036052   0.24995276
   0.26292442   0.27666115   0.28156442   0.29763217   0.30516881
   0.31312761   0.32369232   0.3330568    0.35599703   0.39723465
   0.40358058   0.4068379    0.41153067   0.41882704   0.43747229
   0.45182329   0.49684041   0.51633176   0.54986397   0.56549878
   0.58299555   0.59869644   0.60655397   0.6421955    0.6575554
   0.66187639   0.69889141   0.73162876   0.73616466   0.7666723
   0.79210787   0.80203931   0.82810364   0.87554704   0.8861668
   0.91864302   0.94819925   1.05856887   1.11778645]
nelec by numeric integration = 146.00000421336915
    CPU time for vxc     37.94 sec, wall time     15.80 sec
E1 = -4116.33153764903  Ecoul = 1903.0526495647723  Exc = -124.73140637773008
cycle= 6 E= -835.444703808959  delta_E= -0.000231  |g|= 0.0138  |ddm|= 0.0567
    CPU time for cycle= 6     38.40 sec, wall time     15.87 sec
  HOMO = -0.0945929028849738  LUMO = -0.0192871033552543
  mo_energy =
[-10.03533049 -10.03071024 -10.0296312  -10.02462803 -10.02191195
 -10.021421   -10.02135445 -10.02044481 -10.02002833 -10.01907803
 -10.01856079 -10.01739821 -10.01681607 -10.01655001 -10.0152923
 -10.01124047 -10.01051742 -10.00775792 -10.00539847 -10.00314057
  -9.99719228  -9.99630946  -0.87280575  -0.84026681  -0.82570751
  -0.79736555  -0.7707489   -0.7560798   -0.73928955  -0.72411952
  -0.71153989  -0.68536591  -0.634017    -0.62565883  -0.60002014
  -0.59256745  -0.5721651   -0.55919004  -0.54270132  -0.507537
  -0.50197852  -0.48766675  -0.46932899  -0.45568313  -0.44221058
  -0.43902615  -0.43348586  -0.42609779  -0.41313565  -0.3973341
  -0.38487111  -0.37686916  -0.37121222  -0.36849534  -0.35438643
  -0.34582681  -0.33352138  -0.33074748  -0.32789363  -0.31416167
  -0.29429945  -0.29075913  -0.27583909  -0.27181799  -0.26104498
  -0.24668823  -0.23052168  -0.21729657  -0.20226278  -0.19977035
  -0.1837751   -0.16203173  -0.0945929   -0.0192871    0.0356932
   0.05712875   0.08030572   0.10970343   0.14234127   0.17744426
   0.19385358   0.20561994   0.21915272   0.24077264   0.25018913
   0.26259824   0.27645342   0.282544     0.29810061   0.30469041
   0.31302363   0.32409073   0.33283567   0.35577527   0.39788521
   0.40357663   0.40713339   0.41154638   0.4188476    0.43737331
   0.45253787   0.4973557    0.51709893   0.55086901   0.56634817
   0.58309122   0.59918628   0.60655918   0.64196204   0.65761061
   0.66188293   0.69971144   0.73177137   0.73674067   0.76780793
   0.7925248    0.8024129    0.82790593   0.87607337   0.88681771
   0.91842025   0.94855001   1.05904998   1.11636685]
nelec by numeric integration = 146.00000421526175
    CPU time for vxc     37.92 sec, wall time     15.79 sec
E1 = -4116.329361379568  Ecoul = 1903.0500327628754  Exc = -124.73102679332602
cycle= 7 E= -835.44476475699  delta_E= -6.09e-05  |g|= 0.00382  |ddm|= 0.0234
    CPU time for cycle= 7     38.38 sec, wall time     15.86 sec
  HOMO = -0.0946134708232363  LUMO = -0.0192118014111728
  mo_energy =
[-10.03541327 -10.03046408 -10.02972925 -10.02460487 -10.02167429
 -10.02149417 -10.02108838 -10.02042277 -10.01991487 -10.01906702
 -10.01833879 -10.01707482 -10.0168687  -10.01659566 -10.01436123
 -10.01177025 -10.01016924 -10.00738194 -10.0055428  -10.00250756
  -9.99758981  -9.99705901  -0.87271332  -0.84023541  -0.82564812
  -0.79730062  -0.77081542  -0.75595711  -0.73931765  -0.72405392
  -0.71146172  -0.68530406  -0.63403152  -0.62564343  -0.59999701
  -0.59248898  -0.57210198  -0.55913706  -0.54271156  -0.50749499
  -0.50197937  -0.48760379  -0.46928927  -0.45566359  -0.44215055
  -0.43899887  -0.43342356  -0.42607955  -0.41318708  -0.39727851
  -0.38479536  -0.37682172  -0.37114525  -0.36847199  -0.35435492
  -0.34581776  -0.33348445  -0.33068188  -0.32773989  -0.31407907
  -0.2942495   -0.29073141  -0.27585472  -0.27183926  -0.26087857
  -0.24659001  -0.23054019  -0.21729018  -0.20220077  -0.19972743
  -0.18369621  -0.16196415  -0.09461347  -0.0192118    0.03578329
   0.05722931   0.0803764    0.10973019   0.1424121    0.17746921
   0.1938722    0.20570461   0.21923121   0.24071984   0.25023218
   0.26262307   0.27664626   0.2824609    0.29814402   0.3048552
   0.3130483    0.32414412   0.33293657   0.35579838   0.39794638
   0.40361652   0.40722663   0.41159074   0.41894375   0.43741137
   0.45242945   0.49744424   0.51698144   0.55089772   0.5663674
   0.58318927   0.59913145   0.60662918   0.64222132   0.6576672
   0.66192593   0.69958957   0.73178326   0.73681027   0.76785164
   0.79257522   0.80247754   0.82798389   0.87614222   0.88691101
   0.91854397   0.94861988   1.05889311   1.11639427]
nelec by numeric integration = 146.00000421465467
    CPU time for vxc     38.33 sec, wall time     15.87 sec
E1 = -4116.323017816147  Ecoul = 1903.0435307351947  Exc = -124.73087322795242
cycle= 8 E= -835.444769655876  delta_E= -4.9e-06  |g|= 0.000834  |ddm|= 0.00624
    CPU time for cycle= 8     38.89 sec, wall time     15.96 sec
  HOMO = -0.0946160287357051  LUMO = -0.0191837643864908
  mo_energy =
[-10.03541306 -10.03040716 -10.02969083 -10.02440151 -10.02166104
 -10.0215928  -10.02126092 -10.02060674 -10.019799   -10.01913882
 -10.01832971 -10.01718634 -10.01695968 -10.0166887  -10.01450281
 -10.0118901  -10.01014152 -10.00745656 -10.00546776 -10.00258688
  -9.99749804  -9.99688245  -0.87269321  -0.84029667  -0.82564224
  -0.79736374  -0.77087889  -0.75594366  -0.73930712  -0.72406204
  -0.71145396  -0.68535048  -0.63402846  -0.62563423  -0.60001315
  -0.59248218  -0.5720972   -0.55917834  -0.54276273  -0.50751086
  -0.5019529   -0.48763251  -0.4693005   -0.4556974   -0.44217483
  -0.43898721  -0.43344301  -0.4260544   -0.41324183  -0.39727543
  -0.38478914  -0.37686772  -0.37111802  -0.36847314  -0.35440455
  -0.34585523  -0.33348885  -0.3306747   -0.32774557  -0.31412236
  -0.29425869  -0.29072318  -0.27590613  -0.27183185  -0.26088798
  -0.24657535  -0.23052198  -0.21732497  -0.20222798  -0.19969279
  -0.18368965  -0.16201609  -0.09461603  -0.01918376   0.03574703
   0.05725376   0.08032986   0.10974429   0.1424402    0.17741129
   0.19383887   0.20572085   0.21920811   0.24066559   0.25020982
   0.26270186   0.27665155   0.28245637   0.29810434   0.30488137
   0.3130949    0.3240836    0.33295245   0.35582912   0.39789881
   0.40361359   0.4071777    0.41160114   0.41892024   0.43742541
   0.45236361   0.49742509   0.5170176    0.55083859   0.56632629
   0.58322599   0.59907784   0.60663324   0.6421952    0.65765135
   0.66191414   0.69960894   0.73179454   0.73676454   0.76779701
   0.79255543   0.80245134   0.82799533   0.87607031   0.88687415
   0.91852155   0.94863359   1.05879472   1.11647092]
nelec by numeric integration = 146.00000421472552
    CPU time for vxc     38.60 sec, wall time     15.99 sec
E1 = -4116.325285100538  Ecoul = 1903.045853744956  Exc = -124.73092915263987
cycle= 9 E= -835.444769855194  delta_E= -1.99e-07  |g|= 0.000385  |ddm|= 0.00166
    CPU time for cycle= 9     39.03 sec, wall time     16.06 sec
  HOMO = -0.0946358954625529  LUMO = -0.0191918924578663
  mo_energy =
[-10.03541111 -10.03042744 -10.02967785 -10.02444132 -10.0216887
 -10.02160825 -10.02121545 -10.02054572 -10.01986354 -10.01916881
 -10.01834535 -10.0172125  -10.01692467 -10.01664712 -10.0145026
 -10.01183717 -10.01022626 -10.00744206 -10.00549958 -10.00257722
  -9.99755551  -9.99692637  -0.87270166  -0.84030268  -0.82564808
  -0.79735495  -0.77087629  -0.75595487  -0.73931533  -0.72407346
  -0.71146973  -0.68534721  -0.63404248  -0.62564434  -0.60002607
  -0.59248968  -0.57210209  -0.55917149  -0.54276813  -0.50750986
  -0.50196889  -0.48764564  -0.46930658  -0.45569573  -0.44217786
  -0.43899624  -0.43345337  -0.42606277  -0.41323354  -0.39728332
  -0.38479146  -0.3768655   -0.37113198  -0.36847624  -0.35440908
  -0.34585559  -0.33349037  -0.33067729  -0.32774334  -0.31412046
  -0.29425787  -0.29072712  -0.27590522  -0.27183757  -0.26087128
  -0.2465871   -0.23053313  -0.2173243   -0.20223202  -0.19970436
  -0.18370165  -0.16201846  -0.0946359   -0.01919189   0.03573762
   0.05724124   0.08033643   0.10973703   0.14242689   0.1774106
   0.19384079   0.20571546   0.21920725   0.24067873   0.25021515
   0.26268934   0.27666142   0.28245706   0.29810639   0.30487895
   0.31307709   0.32407748   0.33294616   0.35581536   0.39790526
   0.40360928   0.40719609   0.41158914   0.41890996   0.43741785
   0.45238595   0.49740101   0.51699554   0.550846     0.56633304
   0.58320309   0.59908519   0.60662268   0.64219387   0.65763216
   0.6619065    0.69959379   0.73178225   0.73675761   0.76779652
   0.79254953   0.80245361   0.82798717   0.87605344   0.88685016
   0.91852699   0.9486165    1.05881289   1.1164563 ]
nelec by numeric integration = 146.00000421466558
    CPU time for vxc     38.20 sec, wall time     15.89 sec
E1 = -4116.325189590397  Ecoul = 1903.0457797496556  Exc = -124.73095071717086
cycle= 10 E= -835.444769904884  delta_E= -4.97e-08  |g|= 0.000102  |ddm|= 0.000659
    CPU time for cycle= 10     38.59 sec, wall time     15.96 sec
  HOMO = -0.0946398079490633  LUMO = -0.0191956633497758
  mo_energy =
[-10.0354136  -10.03044201 -10.02969128 -10.02447169 -10.02168042
 -10.02159249 -10.0212358  -10.02056709 -10.0198621  -10.01915376
 -10.01835594 -10.01720123 -10.01693471 -10.01667586 -10.01449838
 -10.01183686 -10.01021723 -10.00745252 -10.00550179 -10.00259007
  -9.99755254  -9.99692982  -0.87271009  -0.84030033  -0.82565572
  -0.7973627   -0.77087288  -0.75595946  -0.73932065  -0.72407716
  -0.71147355  -0.68535231  -0.63404412  -0.62564842  -0.60002749
  -0.59249388  -0.5721071   -0.55917745  -0.54276369  -0.507514
  -0.50197276  -0.48764309  -0.46930908  -0.45569782  -0.44218316
  -0.43900268  -0.43345473  -0.4260663   -0.41323281  -0.39728562
  -0.38479842  -0.37687012  -0.37113519  -0.36848149  -0.35440763
  -0.345854    -0.33349547  -0.3306839   -0.32774555  -0.31412307
  -0.29426305  -0.29073128  -0.27590468  -0.27184109  -0.26088208
  -0.24659113  -0.23053872  -0.21732769  -0.20223701  -0.19971216
  -0.18370736  -0.16202165  -0.09463981  -0.01919566   0.03573714
   0.05723555   0.08032868   0.10973103   0.14242143   0.17741039
   0.19383774   0.20570769   0.21919937   0.240679     0.25020934
   0.2626862    0.27665324   0.28245171   0.29810347   0.30487297
   0.31307019   0.32408461   0.3329409    0.35581175   0.39790001
   0.40360636   0.40718646   0.41158513   0.41891119   0.43741137
   0.45237872   0.4974063    0.51699439   0.55084031   0.56632511
   0.58319937   0.59908587   0.6066187    0.64218781   0.65763537
   0.66190355   0.69959228   0.73177821   0.73675619   0.76778896
   0.7925456    0.8024472    0.82798136   0.87606322   0.88685393
   0.91851841   0.94861019   1.0588194    1.11644035]
nelec by numeric integration = 146.00000421468832
    CPU time for vxc     38.01 sec, wall time     15.81 sec
E1 = -4116.325745715536  Ecoul = 1903.0463397438075  Exc = -124.73095458943072
cycle= 11 E= -835.444769908131  delta_E= -3.25e-09  |g|= 4.15e-05  |ddm|= 0.000195
    CPU time for cycle= 11     38.41 sec, wall time     15.87 sec
  HOMO = -0.0946391626770687  LUMO = -0.0191941763714609
  mo_energy =
[-10.03541216 -10.03043964 -10.0296882  -10.02446056 -10.02168463
 -10.02159641 -10.0212273  -10.02056011 -10.01985884 -10.01915332
 -10.01835104 -10.01720355 -10.01693354 -10.01666537 -10.01450086
 -10.01183525 -10.01021268 -10.00745287 -10.00549981 -10.00258786
  -9.99755083  -9.99693119  -0.87270781  -0.84029952  -0.82565334
  -0.79735948  -0.77087225  -0.75595809  -0.73931852  -0.72407467
  -0.71147139  -0.68535024  -0.63404271  -0.62564713  -0.60002558
  -0.59249251  -0.57210578  -0.55917514  -0.54276347  -0.50751244
  -0.50197082  -0.48764243  -0.4693079   -0.45569651  -0.44218065
  -0.43899999  -0.43345326  -0.42606532  -0.41323208  -0.39728467
  -0.38479677  -0.37686798  -0.37113372  -0.3684799   -0.35440678
  -0.3458536   -0.33349384  -0.330682    -0.32774568  -0.31412184
  -0.29426135  -0.29073002  -0.27590369  -0.27184045  -0.26088151
  -0.24658991  -0.23053672  -0.21732585  -0.20223439  -0.19970955
  -0.18370514  -0.16202024  -0.09463916  -0.01919418   0.03573862
   0.05723799   0.0803319    0.10973243   0.1424234    0.17741186
   0.19383898   0.20571006   0.21920215   0.24067945   0.25021057
   0.2626864    0.27665289   0.28245277   0.29810468   0.30487377
   0.31307298   0.32408357   0.33294206   0.35581341   0.39790167
   0.40360766   0.40718856   0.41158709   0.41891165   0.43741376
   0.45238164   0.49740627   0.51699544   0.55084271   0.56632833
   0.58320211   0.59908655   0.60662046   0.64218905   0.65763577
   0.66190526   0.69959349   0.73178004   0.73675813   0.76779392
   0.79254723   0.80244897   0.82798265   0.87606256   0.88685498
   0.91852023   0.94861346   1.05881892   1.1164454 ]
nelec by numeric integration = 146.0000042146843
    CPU time for vxc     37.71 sec, wall time     15.70 sec
E1 = -4116.32552604605  Ecoul = 1903.0461163866692  Exc = -124.73095090240585
cycle= 12 E= -835.444769908759  delta_E= -6.28e-10  |g|= 1.12e-05  |ddm|= 7.19e-05
    CPU time for cycle= 12     38.25 sec, wall time     15.78 sec
  HOMO = -0.0946385646278287  LUMO = -0.0191934583450586
  mo_energy =
[-10.03541198 -10.03043753 -10.02968827 -10.02446037 -10.0216818
 -10.02159619 -10.02122751 -10.02056001 -10.01986117 -10.01915371
 -10.01835084 -10.01720219 -10.01693251 -10.01666662 -10.01450117
 -10.01183637 -10.01021472 -10.00745062 -10.00550024 -10.00258696
  -9.99754971  -9.99692863  -0.87270723  -0.84029929  -0.82565298
  -0.79735932  -0.77087243  -0.7559579   -0.7393182   -0.72407466
  -0.71147126  -0.68534983  -0.63404209  -0.62564662  -0.60002531
  -0.59249242  -0.57210555  -0.5591752   -0.5427634   -0.50751236
  -0.50197047  -0.48764225  -0.46930751  -0.45569636  -0.44218067
  -0.43899978  -0.433453    -0.426065    -0.41323225  -0.39728435
  -0.38479635  -0.3768677   -0.37113384  -0.36847939  -0.3544066
  -0.34585357  -0.33349359  -0.3306817   -0.32774558  -0.31412173
  -0.29426133  -0.29072992  -0.27590373  -0.2718399   -0.26088098
  -0.24658978  -0.2305364   -0.21732575  -0.20223443  -0.19970919
  -0.1837051   -0.16201984  -0.09463856  -0.01919346   0.03573901
   0.05723803   0.08033189   0.10973316   0.14242329   0.17741196
   0.19383914   0.20571038   0.21920256   0.24067926   0.25021106
   0.26268576   0.27665337   0.28245371   0.29810494   0.30487396
   0.313073     0.3240837    0.33294222   0.35581335   0.39790198
   0.4036079    0.40718894   0.41158739   0.41891195   0.43741423
   0.45238127   0.49740689   0.51699645   0.5508426    0.56632845
   0.58320153   0.59908637   0.60662049   0.64218942   0.65763604
   0.66190543   0.69959416   0.7317805    0.73675833   0.76779344
   0.79254768   0.80244952   0.82798344   0.87606291   0.88685531
   0.91852094   0.94861357   1.05881851   1.11644552]
nelec by numeric integration = 146.00000421468732
    CPU time for vxc     38.08 sec, wall time     15.85 sec
E1 = -4116.325509073617  Ecoul = 1903.0460993651084  Exc = -124.730950853303
cycle= 13 E= -835.444769908783  delta_E= -2.46e-11  |g|= 7.63e-06  |ddm|= 2.27e-05
    CPU time for cycle= 13     38.62 sec, wall time     15.94 sec
  HOMO = -0.0946391963909493  LUMO = -0.0191939093458853
  mo_energy =
[-10.03541341 -10.03043856 -10.02968811 -10.02446127 -10.02168429
 -10.02159663 -10.02122772 -10.0205601  -10.01985762 -10.01915493
 -10.01835294 -10.0172037  -10.01693233 -10.01666501 -10.01449879
 -10.011836   -10.01021283 -10.0074515  -10.00549814 -10.00258921
  -9.99755336  -9.9969286   -0.87270789  -0.84029983  -0.82565339
  -0.79735946  -0.7708726   -0.75595788  -0.73931811  -0.72407476
  -0.71147148  -0.68535015  -0.63404302  -0.62564664  -0.60002586
  -0.59249232  -0.57210551  -0.55917505  -0.54276384  -0.50751246
  -0.5019709   -0.48764264  -0.46930785  -0.45569665  -0.44218073
  -0.43900009  -0.43345323  -0.42606482  -0.41323242  -0.39728466
  -0.3847968   -0.37686781  -0.3711334   -0.3684799   -0.35440698
  -0.34585377  -0.33349373  -0.33068198  -0.32774529  -0.31412191
  -0.29426114  -0.29072965  -0.27590392  -0.27183987  -0.26088123
  -0.24658959  -0.23053636  -0.21732592  -0.20223443  -0.19970983
  -0.18370513  -0.1620203   -0.0946392   -0.01919391   0.03573852
   0.05723818   0.08033198   0.1097327    0.14242378   0.17741158
   0.19383909   0.20570998   0.21920216   0.24067926   0.25021062
   0.26268688   0.276653     0.28245349   0.29810472   0.30487407
   0.31307267   0.32408328   0.33294231   0.35581348   0.39790177
   0.40360785   0.40718868   0.41158695   0.41891161   0.43741367
   0.45238151   0.49740618   0.51699572   0.55084287   0.56632866
   0.58320221   0.59908649   0.60662095   0.64218958   0.65763577
   0.66190545   0.69959384   0.73178025   0.73675816   0.76779382
   0.79254737   0.80244917   0.82798261   0.87606199   0.8868547
   0.91851985   0.94861249   1.05881848   1.11644512]
nelec by numeric integration = 146.00000421468206
    CPU time for vxc     38.18 sec, wall time     15.87 sec
E1 = -4116.325531143855  Ecoul = 1903.0461219238798  Exc = -124.730951341657
Extra cycle  E= -835.444769908604  delta_E= 1.79e-10  |g|= 2.37e-05  |ddm|= 4.72e-05
    CPU time for scf_cycle    593.75 sec, wall time    244.31 sec
    CPU time for SCF    593.75 sec, wall time    244.31 sec
converged SCF energy = -835.444769908604
nelec by numeric integration = 146.00000421468206
    CPU time for vxc     38.71 sec, wall time     15.99 sec
 ** Mulliken pop  **
pop of  0 C 1s            1.99168
pop of  0 C 2s            1.19585
pop of  0 C 2px           0.95603
pop of  0 C 2py           0.91723
pop of  0 C 2pz           0.91345
pop of  1 C 1s            1.99143
pop of  1 C 2s            1.16843
pop of  1 C 2px           0.96172
pop of  1 C 2py           0.93674
pop of  1 C 2pz           0.91012
pop of  2 C 1s            1.99130
pop of  2 C 2s            1.08837
pop of  2 C 2px           1.00836
pop of  2 C 2py           0.99217
pop of  2 C 2pz           1.02722
pop of  3 C 1s            1.99061
pop of  3 C 2s            1.14404
pop of  3 C 2px           1.02215
pop of  3 C 2py           0.96157
pop of  3 C 2pz           0.98176
pop of  4 C 1s            1.99042
pop of  4 C 2s            1.03967
pop of  4 C 2px           1.04557
pop of  4 C 2py           1.02370
pop of  4 C 2pz           1.06827
pop of  5 C 1s            1.99087
pop of  5 C 2s            1.13086
pop of  5 C 2px           1.01903
pop of  5 C 2py           0.96229
pop of  5 C 2pz           1.03392
pop of  6 C 1s            1.99106
pop of  6 C 2s            1.12128
pop of  6 C 2px           0.97134
pop of  6 C 2py           1.01377
pop of  6 C 2pz           0.95421
pop of  7 C 1s            1.99153
pop of  7 C 2s            1.12440
pop of  7 C 2px           0.99383
pop of  7 C 2py           1.00634
pop of  7 C 2pz           0.95124
pop of  8 C 1s            1.99076
pop of  8 C 2s            1.13139
pop of  8 C 2px           0.99648
pop of  8 C 2py           0.93120
pop of  8 C 2pz           0.95338
pop of  9 C 1s            1.99097
pop of  9 C 2s            1.14074
pop of  9 C 2px           0.97843
pop of  9 C 2py           0.93708
pop of  9 C 2pz           0.94634
pop of  10 C 1s           1.99184
pop of  10 C 2s           1.18412
pop of  10 C 2px          0.96144
pop of  10 C 2py          0.92479
pop of  10 C 2pz          0.93718
pop of  11 C 1s           1.99129
pop of  11 C 2s           1.17116
pop of  11 C 2px          1.02371
pop of  11 C 2py          0.91589
pop of  11 C 2pz          0.99600
pop of  12 C 1s           1.99001
pop of  12 C 2s           1.03186
pop of  12 C 2px          1.02018
pop of  12 C 2py          1.03207
pop of  12 C 2pz          0.99818
pop of  13 C 1s           1.99023
pop of  13 C 2s           1.07652
pop of  13 C 2px          1.01238
pop of  13 C 2py          0.97359
pop of  13 C 2pz          0.95596
pop of  14 C 1s           1.99133
pop of  14 C 2s           1.17901
pop of  14 C 2px          1.00151
pop of  14 C 2py          0.90841
pop of  14 C 2pz          0.96727
pop of  15 C 1s           1.99111
pop of  15 C 2s           1.16821
pop of  15 C 2px          0.95870
pop of  15 C 2py          0.94213
pop of  15 C 2pz          0.94574
pop of  16 C 1s           1.99180
pop of  16 C 2s           1.08934
pop of  16 C 2px          0.97283
pop of  16 C 2py          0.94952
pop of  16 C 2pz          0.98667
pop of  17 C 1s           1.99098
pop of  17 C 2s           1.04993
pop of  17 C 2px          1.03494
pop of  17 C 2py          0.97511
pop of  17 C 2pz          1.01799
pop of  18 C 1s           1.99150
pop of  18 C 2s           1.11397
pop of  18 C 2px          1.06059
pop of  18 C 2py          0.96561
pop of  18 C 2pz          1.03738
pop of  19 C 1s           1.99124
pop of  19 C 2s           1.18392
pop of  19 C 2px          0.96820
pop of  19 C 2py          0.94044
pop of  19 C 2pz          0.96390
pop of  20 C 1s           1.99155
pop of  20 C 2s           1.22703
pop of  20 C 2px          0.93542
pop of  20 C 2py          0.93480
pop of  20 C 2pz          0.91317
pop of  21 C 1s           1.99079
pop of  21 C 2s           1.15305
pop of  21 C 2px          1.00764
pop of  21 C 2py          1.00154
pop of  21 C 2pz          0.95164
pop of  22 H 1s           0.91520
pop of  23 H 1s           0.90760
pop of  24 H 1s           0.88001
pop of  25 H 1s           0.88708
pop of  26 H 1s           0.91167
pop of  27 H 1s           0.92973
pop of  28 H 1s           0.97074
pop of  29 H 1s           0.89704
pop of  30 H 1s           0.89739
pop of  31 H 1s           0.94567
pop of  32 H 1s           0.87416
pop of  33 H 1s           0.92081
pop of  34 H 1s           0.96885
pop of  35 H 1s           0.90917
 ** Mulliken atomic charges  **
charge of    0C =      0.02576
charge of    1C =      0.03155
charge of    2C =     -0.10742
charge of    3C =     -0.10014
charge of    4C =     -0.16763
charge of    5C =     -0.13697
charge of    6C =     -0.05166
charge of    7C =     -0.06734
charge of    8C =     -0.00320
charge of    9C =      0.00643
charge of   10C =      0.00063
charge of   11C =     -0.09806
charge of   12C =     -0.07229
charge of   13C =     -0.00868
charge of   14C =     -0.04754
charge of   15C =     -0.00589
charge of   16C =      0.00985
charge of   17C =     -0.06894
charge of   18C =     -0.16905
charge of   19C =     -0.04769
charge of   20C =     -0.00197
charge of   21C =     -0.10465
charge of   22H =      0.08480
charge of   23H =      0.09240
charge of   24H =      0.11999
charge of   25H =      0.11292
charge of   26H =      0.08833
charge of   27H =      0.07027
charge of   28H =      0.02926
charge of   29H =      0.10296
charge of   30H =      0.10261
charge of   31H =      0.05433
charge of   32H =      0.12584
charge of   33H =      0.07919
charge of   34H =      0.03115
charge of   35H =      0.09083
Dipole moment(X, Y, Z, Debye):  0.07655,  0.13892, -0.48629
nelec by numeric integration = 146.00000421468206
    CPU time for vxc     37.95 sec, wall time     15.83 sec
E1 = -4116.325531143855  Ecoul = 1903.0461219238803  Exc = -124.730951341657
nelec by numeric integration = 146.00000421468206
    CPU time for vxc     37.84 sec, wall time     15.86 sec
E1 = -4116.325531143855  Ecoul = 1903.0461219238805  Exc = -124.730951341657
