System: uname_result(system='Linux', node='cosmopc18', release='5.15.0-97-generic', version='#107-Ubuntu SMP Wed Feb 7 13:26:48 UTC 2024', machine='x86_64')  Threads 4
Python 3.11.8 (main, Feb 26 2024, 21:39:34) [GCC 11.2.0]
numpy 1.26.4  scipy 1.11.4
Date: Tue Apr  9 14:46:37 2024
PySCF version 2.3.0
PySCF path  /home/saade/miniconda3/envs/tutorial/lib/python3.11/site-packages/pyscf

[ENV] PYSCFAD_BACKEND torch
[CONFIG] conf_file None
[INPUT] verbose = 5
[INPUT] max_memory = 4000 
[INPUT] num. atoms = 36
[INPUT] num. electrons = 146
[INPUT] charge = 0
[INPUT] spin (= nelec alpha-beta = 2S) = 0
[INPUT] symmetry False subgroup None
[INPUT] Mole.unit = angstrom
[INPUT] Symbol           X                Y                Z      unit          X                Y                Z       unit  Magmom
[INPUT]  1 C      0.179107000000   3.664781000000   0.558368000000 AA    0.338463176992   6.925432396510   1.055162596721 Bohr   0.0
[INPUT]  2 C     -0.086658000000   3.705940000000  -0.630633000000 AA   -0.163759886503   7.003211634071  -1.191723655113 Bohr   0.0
[INPUT]  3 C      0.104805000000   4.943629000000   1.334163000000 AA    0.198052746485   9.342104871457   2.521202675528 Bohr   0.0
[INPUT]  4 C      0.009632000000   2.489153000000   1.356854000000 AA    0.018201842032   4.703817452139   2.564082451021 Bohr   0.0
[INPUT]  5 C     -0.135325000000   4.722436000000  -1.148614000000 AA   -0.255727187807   8.924110680787  -2.170565882841 Bohr   0.0
[INPUT]  6 C     -0.053764000000   2.411095000000  -1.284762000000 AA   -0.101599235361   4.556309210308  -2.427848315248 Bohr   0.0
[INPUT]  7 C      0.018559000000   6.256348000000  -0.628769000000 AA    0.035071427146  11.822784259970  -1.188201205617 Bohr   0.0
[INPUT]  8 C     -0.004391000000   5.988032000000   0.636026000000 AA   -0.008297787413  11.315740505132   1.201914948103 Bohr   0.0
[INPUT]  9 C     -0.101763000000   1.233841000000   0.733565000000 AA   -0.192304199614   2.331621571259   1.386236944567 Bohr   0.0
[INPUT] 10 C     -0.048350000000   1.136698000000  -0.648618000000 AA   -0.091368258123   2.148047906341  -1.225710379463 Bohr   0.0
[INPUT] 11 C      0.151600000000   0.210926000000   1.481104000000 AA    0.286482480484   0.398592372550   2.798880921998 Bohr   0.0
[INPUT] 12 C     -0.011478000000  -0.010970000000  -1.377629000000 AA   -0.021690276458  -0.020730295586  -2.603341511258 Bohr   0.0
[INPUT] 13 C     -0.031598000000  -1.186739000000   0.737753000000 AA   -0.059711566084  -2.242611691340   1.394151117576 Bohr   0.0
[INPUT] 14 C     -0.105087000000  -1.400597000000  -0.677595000000 AA   -0.198585649252  -2.646744740887  -1.280468973375 Bohr   0.0
[INPUT] 15 C     -0.057323000000  -2.413071000000   1.491833000000 AA   -0.108324770638  -4.560043309130   2.819155793588 Bohr   0.0
[INPUT] 16 C     -0.044259000000  -2.435634000000  -1.345919000000 AA   -0.083637388547  -4.602681199679  -2.543418295848 Bohr   0.0
[INPUT] 17 C      0.130251000000  -3.848957000000   0.753525000000 AA    0.246138717451  -7.273474595228   1.423955878013 Bohr   0.0
[INPUT] 18 C     -0.032906000000  -3.659931000000  -0.726822000000 AA   -0.062183327855  -6.916267224806  -1.373494521309 Bohr   0.0
[INPUT] 19 C      0.014415000000  -4.920537000000   1.443779000000 AA    0.027240402086  -9.298467315789   2.728346894398 Bohr   0.0
[INPUT] 20 C     -0.036176000000  -5.204548000000  -1.504704000000 AA   -0.068362732282  -9.835170322153  -2.843478458538 Bohr   0.0
[INPUT] 21 C     -0.111020000000  -6.129634000000   0.707599000000 AA   -0.209797394349 -11.583329503822   1.337168316016 Bohr   0.0
[INPUT] 22 C     -0.224533000000  -6.069226000000  -0.601516000000 AA   -0.424305875927 -11.469174928090  -1.136700499544 Bohr   0.0
[INPUT] 23 H     -0.114611000000   4.880985000000   2.367896000000 AA   -0.216583400863   9.223724868110   4.474674931453 Bohr   0.0
[INPUT] 24 H      0.053729000000   2.488563000000   2.381231000000 AA    0.101533094947   4.702702513726   4.499874429324 Bohr   0.0
[INPUT] 25 H     -0.050736000000   4.861918000000  -2.483294000000 AA   -0.095877144656   9.187693460093  -4.692745546776 Bohr   0.0
[INPUT] 26 H     -0.088853000000   2.460753000000  -2.560542000000 AA   -0.167907835346   4.650149230202  -4.838723110446 Bohr   0.0
[INPUT] 27 H     -0.194798000000   7.179840000000  -1.336033000000 AA   -0.368114869613  13.567931218197  -2.524736463381 Bohr   0.0
[INPUT] 28 H      0.081377000000   7.071765000000   1.268232000000 AA    0.153780242839  13.363699067285   2.396611142409 Bohr   0.0
[INPUT] 29 H      0.070509000000  -0.118164000000   2.379204000000 AA    0.133242699317  -0.223297597783   4.496043954470 Bohr   0.0
[INPUT] 30 H     -0.116079000000   0.088010000000  -2.333711000000 AA   -0.219357518813   0.166314796223  -4.410074643885 Bohr   0.0
[INPUT] 31 H     -0.059686000000  -2.691384000000   2.397602000000 AA   -0.112790193471  -5.085978656036   4.530811135709 Bohr   0.0
[INPUT] 32 H      0.041714000000  -2.510983000000  -2.453232000000 AA    0.078828035560  -4.745070173439  -4.635936600019 Bohr   0.0
[INPUT] 33 H      0.123319000000  -4.798327000000   2.408618000000 AA    0.233039135955  -9.067523886106   4.551628358698 Bohr   0.0
[INPUT] 34 H      0.034055000000  -4.919036000000  -2.503521000000 AA    0.064354623172  -9.295630836876  -4.730969037097 Bohr   0.0
[INPUT] 35 H     -0.068884000000  -7.069084000000   1.312543000000 AA   -0.130171894365 -13.358632711545   2.480346796715 Bohr   0.0
[INPUT] 36 H      0.078226000000  -6.885917000000  -1.232409000000 AA    0.147825715820 -13.012497246487  -2.328915483449 Bohr   0.0
[INPUT] ---------------- BASIS SET ---------------- 
[INPUT] l, kappa, [nprim/nctr], expnt,             c_1 c_2 ...
[INPUT] H
[INPUT] 0    0    [3    /1   ]  3.42525091        0.15432897
                                0.62391373        0.53532814
                                0.1688554         0.44463454
[INPUT] C
[INPUT] 0    0    [3    /1   ]  71.616837         0.15432897
                                13.045096         0.53532814
                                3.5305122         0.44463454
[INPUT] 0    0    [3    /1   ]  2.9412494         -0.09996723
                                0.6834831         0.39951283
                                0.2222899         0.70011547
[INPUT] 1    0    [3    /1   ]  2.9412494         0.15591627
                                0.6834831         0.60768372
                                0.2222899         0.39195739

nuclear repulsion = 1507.17083727372
number of shells = 80
number of NR pGTOs = 372
number of NR cGTOs = 124
basis = sto3g
ecp = {}
CPU time:     44609.27
atom C rad-grids = 99, ang-grids = [ 50  50  50  50  50  50  50  50  50  50  50  50  50  50  50  50  50  50
  50  50  50  50  50  50  50  50  50  50  50  50  50  86  86  86  86  86
  86  86  86  86  86  86  86 434 434 434 434 434 434 434 434 434 590 590
 590 590 590 590 590 590 590 590 590 590 590 590 590 590 590 590 590 590
 590 590 590 590 590 590 590 434 434 434 434 434 434 434 434 434 434 434
 434 434 434 434 434 434 434 434 434]
atom H rad-grids = 99, ang-grids = [ 50  50  50  50  50  50  50  50  50  50  50  50  50  50  50  50  50  50
  50  50  50  50  50  50  50  50  50  50  86  86  86  86  86  86  86 434
 434 434 434 434 434 434 434 590 590 590 590 590 590 590 590 590 590 590
 590 590 590 590 590 590 590 590 590 590 590 590 590 590 590 434 434 434
 434 434 434 434 434 434 434 434 434 434 434 434 434 434 434 434 434 434
 434 434 434 434 434 434 434 434 434]
tot_boxes 5270, boxes in each direction [ 8 29 15]
Padding 0 grids
tot grids = 1157832


******** <class 'pyscf.dft.rks.RKS'> ********
method = RKS
initial guess = minao
damping factor = 0
level_shift factor = 0
DIIS = <class 'pyscf.scf.diis.CDIIS'>
diis_start_cycle = 1
diis_space = 8
SCF conv_tol = 1e-10
SCF conv_tol_grad = None
SCF max_cycles = 50
direct_scf = True
direct_scf_tol = 1e-13
chkfile to save SCF result = /home/saade/mlelec/tutorials/tmp_pr9o9di
max_memory 4000 MB (current use 638 MB)
XC library pyscf.dft.libxc version 6.1.0
    S. Lehtola, C. Steigemann, M. J.T. Oliveira, and M. A.L. Marques.,  SoftwareX 7, 1–5 (2018)
XC functionals = b3lypg
    P. J. Stephens, F. J. Devlin, C. F. Chabalowski, and M. J. Frisch.,  J. Phys. Chem. 98, 11623 (1994)
radial grids: 
    Treutler-Ahlrichs [JCP 102, 346 (1995); DOI:10.1063/1.469408] (M4) radial grids
    
becke partition: Becke, JCP 88, 2547 (1988); DOI:10.1063/1.454033
pruning grids: <function nwchem_prune at 0x7f9db5616ca0>
grids dens level: 3
symmetrized grids: False
atomic radii adjust function: <function treutler_atomic_radii_adjust at 0x7f9db5617380>
User specified grid scheme (99, 590)
small_rho_cutoff = 1e-07
Set gradient conv threshold to 1e-05
Initial guess from minao.
nelec by numeric integration = 145.27222814746287
    CPU time for vxc     37.54 sec, wall time     15.94 sec
E1 = -4113.941538634865  Ecoul = 1891.0304571317886  Exc = -126.32813356321007
init E= -842.068377792565
cond(S) = 28.733180728179153
    CPU time for initialize scf     47.54 sec, wall time     18.36 sec
  HOMO = -0.189716671692067  LUMO = -0.168138842568666
  mo_energy =
[-1.01849220e+01 -1.01290072e+01 -1.01286444e+01 -1.01248214e+01
 -1.01214534e+01 -1.01208473e+01 -1.01169069e+01 -1.01166619e+01
 -1.01164908e+01 -1.01154014e+01 -1.01144617e+01 -1.01068847e+01
 -1.01053770e+01 -1.01024284e+01 -1.00956697e+01 -1.00939540e+01
 -1.00938039e+01 -1.00930395e+01 -1.00890994e+01 -1.00828675e+01
 -1.00778623e+01 -1.00760993e+01 -1.14370786e+00 -1.08041314e+00
 -1.05297958e+00 -1.01318252e+00 -9.68080345e-01 -9.44164391e-01
 -9.27296443e-01 -9.06466564e-01 -8.60485857e-01 -8.46418044e-01
 -7.94222340e-01 -7.81037256e-01 -7.29595785e-01 -7.26213251e-01
 -7.15110086e-01 -6.98769163e-01 -6.68399358e-01 -6.38092643e-01
 -5.99352178e-01 -5.89907716e-01 -5.77678576e-01 -5.53963895e-01
 -5.49199860e-01 -5.40179443e-01 -5.25657100e-01 -5.16675188e-01
 -5.09475816e-01 -4.95105225e-01 -4.90348274e-01 -4.67244397e-01
 -4.64773172e-01 -4.58815464e-01 -4.55058069e-01 -4.48859496e-01
 -4.33475685e-01 -4.21798920e-01 -4.14307311e-01 -4.06023248e-01
 -3.90400104e-01 -3.87515937e-01 -3.66228918e-01 -3.60754751e-01
 -3.55541906e-01 -3.40828425e-01 -3.24457015e-01 -3.05414760e-01
 -2.85117992e-01 -2.75636983e-01 -2.63514730e-01 -2.43193249e-01
 -1.89716672e-01 -1.68138843e-01 -1.09528479e-01 -8.59022737e-02
 -4.07952115e-02 -2.69955440e-02 -3.06325714e-03  2.70375069e-02
  6.21224196e-02  8.91095414e-02  1.01399024e-01  1.08391403e-01
  1.33534536e-01  1.34696454e-01  1.50987121e-01  1.69948423e-01
  1.84781518e-01  1.89623493e-01  1.96530359e-01  2.16185489e-01
  2.25860358e-01  2.66661244e-01  2.71709391e-01  2.89547708e-01
  3.00474309e-01  3.04454062e-01  3.24259679e-01  3.37205375e-01
  3.62156988e-01  3.73138251e-01  3.83508404e-01  3.89676837e-01
  3.97753108e-01  4.14995806e-01  4.42093061e-01  4.62774907e-01
  4.80093867e-01  5.21749020e-01  5.23743015e-01  5.44294496e-01
  5.77243512e-01  5.91711970e-01  6.30367004e-01  6.34093375e-01
  6.59885804e-01  7.17187361e-01  7.29556311e-01  7.39320985e-01
  7.80363106e-01  7.97892200e-01  8.18873505e-01  9.26220140e-01]
nelec by numeric integration = 146.0000022603077
    CPU time for vxc     38.70 sec, wall time     16.09 sec
E1 = -4129.290227900189  Ecoul = 1911.5191089035802  Exc = -124.94207395723119
cycle= 1 E= -835.542355680118  delta_E= 6.53  |g|= 0.321  |ddm|= 9.37
    CPU time for cycle= 1     39.10 sec, wall time     16.16 sec
  HOMO = -0.0703049477186043  LUMO = -0.010857035293672
  mo_energy =
[-10.05149665 -10.04091958 -10.04032273 -10.03015989 -10.01558407
 -10.00532228 -10.00225457  -9.99931909  -9.98753389  -9.98482724
  -9.9797273   -9.97260314  -9.97217348  -9.96632108  -9.95993077
  -9.95925296  -9.9551554   -9.95106204  -9.94401803  -9.93286075
  -9.92311999  -9.88668514  -0.84782271  -0.82670686  -0.81034007
  -0.77848548  -0.74702793  -0.73875257  -0.71870724  -0.68608464
  -0.67720723  -0.65803935  -0.63354606  -0.60362936  -0.58145138
  -0.56483991  -0.56381475  -0.54973954  -0.53704183  -0.50237376
  -0.47923039  -0.47094216  -0.46096857  -0.44719073  -0.43402183
  -0.42876275  -0.41337313  -0.40721631  -0.39021018  -0.38032902
  -0.36271934  -0.35377954  -0.35179828  -0.34500876  -0.33674318
  -0.33385186  -0.32385799  -0.31968575  -0.31040148  -0.29347035
  -0.27600568  -0.27151864  -0.25451163  -0.23752842  -0.23204257
  -0.22839949  -0.20760845  -0.19710317  -0.18450724  -0.16354051
  -0.14923497  -0.12858362  -0.07030495  -0.01085704   0.03283126
   0.07868689   0.12143396   0.13901695   0.15351762   0.20411761
   0.21564987   0.23281542   0.23752448   0.26502338   0.2726502
   0.28389689   0.31030051   0.31302717   0.32119244   0.32620706
   0.36289697   0.37599086   0.38949921   0.39557449   0.41786875
   0.43743378   0.45177448   0.45892728   0.47691322   0.48639378
   0.50989849   0.53160824   0.55079519   0.55687098   0.56810323
   0.58864321   0.60073213   0.63388051   0.65011318   0.66121621
   0.67822595   0.71970588   0.73989308   0.74623963   0.77950618
   0.80840648   0.83262496   0.88611964   0.90082091   0.91750062
   0.92536236   0.96623647   1.02701236   1.13147141]
nelec by numeric integration = 146.00000218811013
    CPU time for vxc     38.35 sec, wall time     16.00 sec
E1 = -4123.020218359804  Ecoul = 1905.2017747622156  Exc = -124.79390350356235
cycle= 2 E= -835.441509827429  delta_E= 0.101  |g|= 0.586  |ddm|= 1.62
    CPU time for cycle= 2     38.79 sec, wall time     16.07 sec
  HOMO = -0.0823320044974249  LUMO = -0.0223427786669891
  mo_energy =
[-10.02905132 -10.02193586 -10.02144412 -10.02113221 -10.01304613
 -10.01231678 -10.01142375 -10.01062448 -10.00225825 -10.00190926
 -10.00020586  -9.99913772  -9.99912124  -9.99645825  -9.99502819
  -9.99385514  -9.99141264  -9.98729727  -9.98589846  -9.97842671
  -9.95757299  -9.94650943  -0.88128037  -0.83291243  -0.8183906
  -0.78900895  -0.7647278   -0.74562609  -0.72577424  -0.71957661
  -0.68457197  -0.67144771  -0.64226017  -0.61878405  -0.59051973
  -0.57995432  -0.57716638  -0.56455282  -0.54097285  -0.51462768
  -0.48816125  -0.47718469  -0.46305128  -0.45238787  -0.44671083
  -0.43484255  -0.42395566  -0.4188497   -0.40030748  -0.39025684
  -0.37955899  -0.37617465  -0.37198626  -0.35858868  -0.35204876
  -0.34354895  -0.32871988  -0.32305108  -0.31785046  -0.29864232
  -0.29150458  -0.28529728  -0.26295038  -0.26178034  -0.25349624
  -0.2345545   -0.21446932  -0.20726304  -0.19512891  -0.18273615
  -0.16135333  -0.13788218  -0.082332    -0.02234278   0.032157
   0.05673118   0.10327293   0.12442205   0.14757853   0.17486084
   0.20948863   0.2306511    0.24988424   0.2559355    0.26743709
   0.28262812   0.30483061   0.31498474   0.32207781   0.33264801
   0.34965928   0.36876146   0.3717468    0.38380024   0.42692197
   0.43327956   0.43915809   0.44780891   0.44987492   0.4804996
   0.49399938   0.51668604   0.52868555   0.53710666   0.54702171
   0.55794038   0.57824376   0.60892941   0.64191785   0.66821613
   0.67174381   0.6976718    0.72823575   0.73626068   0.77397722
   0.77718747   0.81789121   0.86203974   0.88022037   0.88624974
   0.93882386   0.95399576   0.98207422   1.09847031]
nelec by numeric integration = 146.0000023042709
    CPU time for vxc     38.71 sec, wall time     16.15 sec
E1 = -4124.293813686771  Ecoul = 1906.4324442035634  Exc = -124.82175630714957
cycle= 3 E= -835.512288516635  delta_E= -0.0708  |g|= 0.406  |ddm|= 1.88
    CPU time for cycle= 3     39.21 sec, wall time     16.23 sec
  HOMO = -0.0885564645323632  LUMO = -0.0399086167947867
  mo_energy =
[-10.04761599 -10.03609016 -10.03294723 -10.03198365 -10.03142933
 -10.02816817 -10.02132614 -10.01613253 -10.01598075 -10.01370427
 -10.01211812 -10.00999522 -10.00622869 -10.00524229 -10.0040901
 -10.00140146  -9.99950826  -9.99686046  -9.99231331  -9.99087137
  -9.99057542  -9.98329675  -0.89703665  -0.84501487  -0.8265802
  -0.80219009  -0.76795963  -0.7533316   -0.7421444   -0.72539685
  -0.69026426  -0.6814933   -0.64514162  -0.63161921  -0.59547588
  -0.59381664  -0.58849523  -0.57211609  -0.54743719  -0.51968721
  -0.49320526  -0.48574902  -0.47049314  -0.45657829  -0.45119578
  -0.44267105  -0.42802491  -0.42241284  -0.40662294  -0.40265425
  -0.39205253  -0.37823016  -0.3710956   -0.36971091  -0.36462145
  -0.35524417  -0.33925468  -0.3308668   -0.32649766  -0.31307356
  -0.29916107  -0.2974566   -0.27478392  -0.26646961  -0.26364224
  -0.24467856  -0.22897762  -0.21184379  -0.20033227  -0.18792748
  -0.16924377  -0.14648949  -0.08855646  -0.03990862   0.02312756
   0.05051512   0.09807361   0.11053925   0.13797977   0.17032408
   0.20230075   0.22024542   0.23991895   0.24677134   0.26663707
   0.2760522    0.29306134   0.29618182   0.32027989   0.3234379
   0.336209     0.35768676   0.36425116   0.39187611   0.41622182
   0.42643591   0.43499739   0.44071274   0.44475795   0.4762879
   0.49089635   0.51153901   0.52693699   0.5291854    0.54121597
   0.55066877   0.57222226   0.60248184   0.616201     0.65570172
   0.66099884   0.68239442   0.71709766   0.72371119   0.76682837
   0.77656259   0.79925957   0.86117516   0.87287665   0.88654409
   0.92521978   0.94002087   0.96755111   1.07319613]
nelec by numeric integration = 146.00000223715014
    CPU time for vxc     39.36 sec, wall time     16.35 sec
E1 = -4126.30027405171  Ecoul = 1908.3806253226203  Exc = -124.82810537253918
cycle= 4 E= -835.576916827908  delta_E= -0.0646  |g|= 0.147  |ddm|= 1.09
    CPU time for cycle= 4     39.87 sec, wall time     16.43 sec
  HOMO = -0.0892232332941371  LUMO = -0.0397940098835797
  mo_energy =
[-10.04084658 -10.03163856 -10.03025749 -10.02778683 -10.02148484
 -10.02146488 -10.0210199  -10.02061624 -10.01702413 -10.01682103
 -10.01513603 -10.0129022  -10.01253791 -10.01222985 -10.01154746
 -10.01071494 -10.00830926 -10.00780822 -10.00231311  -9.99698116
  -9.99309297  -9.99302195  -0.89236743  -0.84398948  -0.82943519
  -0.80328948  -0.77296946  -0.75672345  -0.74044307  -0.72367121
  -0.69118592  -0.68340934  -0.64716378  -0.63365105  -0.59449308
  -0.59404707  -0.58602897  -0.57038832  -0.5493005   -0.52102615
  -0.49383445  -0.48638108  -0.47143859  -0.45750226  -0.45276685
  -0.44535833  -0.43077768  -0.42486034  -0.40862578  -0.40092037
  -0.39022035  -0.37910897  -0.37444549  -0.36868532  -0.36423671
  -0.35580468  -0.33929336  -0.33314543  -0.32787988  -0.31051513
  -0.29906387  -0.29830336  -0.27432271  -0.26775773  -0.26637951
  -0.24753128  -0.22908701  -0.21391082  -0.20325783  -0.19015346
  -0.17074456  -0.14938206  -0.08922323  -0.03979401   0.02078201
   0.04890126   0.09793615   0.11156518   0.13567279   0.16728539
   0.19824797   0.22181008   0.23670627   0.24378517   0.261869
   0.27701043   0.29263544   0.30006729   0.31546339   0.32163207
   0.3384213    0.35551831   0.36306113   0.38301394   0.41654858
   0.42729154   0.43398068   0.44287298   0.44351616   0.47696217
   0.48781034   0.51028871   0.52860847   0.53022478   0.54381471
   0.55041222   0.57061306   0.60360469   0.62023066   0.65497961
   0.6598224    0.68568377   0.71775267   0.72366782   0.76450603
   0.77038702   0.80146865   0.85775393   0.86829997   0.88022851
   0.91986443   0.93567673   0.9716658    1.08072771]
nelec by numeric integration = 146.0000022363419
    CPU time for vxc     38.29 sec, wall time     16.27 sec
E1 = -4125.6650468732  Ecoul = 1907.7420851829645  Exc = -124.83248327625165
cycle= 5 E= -835.584607692765  delta_E= -0.00769  |g|= 0.0402  |ddm|= 0.298
    CPU time for cycle= 5     38.90 sec, wall time     16.39 sec
  HOMO = -0.0902562517901245  LUMO = -0.0395009393322206
  mo_energy =
[-10.04047408 -10.03327203 -10.03218935 -10.03069961 -10.02085994
 -10.02034516 -10.0196998  -10.01778793 -10.01577627 -10.01494673
 -10.01487334 -10.01348298 -10.01171087 -10.01154095 -10.01140886
 -10.00972375 -10.00683271 -10.00584076 -10.00170812  -9.99933886
  -9.99549115  -9.99346314  -0.89166861  -0.84485914  -0.82955299
  -0.8027844   -0.76950042  -0.75696153  -0.74099734  -0.7247727
  -0.69089795  -0.68422976  -0.64652091  -0.63250656  -0.59530811
  -0.5936942   -0.58794257  -0.57193824  -0.54948497  -0.520207
  -0.49338181  -0.48659308  -0.47144827  -0.45668964  -0.4535044
  -0.44500202  -0.42945662  -0.42377025  -0.40745495  -0.40061628
  -0.38997507  -0.37905138  -0.37209943  -0.36960799  -0.36493361
  -0.35617383  -0.34039779  -0.33336351  -0.32869838  -0.31228152
  -0.2996163   -0.29818389  -0.27410784  -0.26762743  -0.26552534
  -0.24801696  -0.22991129  -0.21433849  -0.2021943   -0.19062757
  -0.17069225  -0.15051405  -0.09025625  -0.03950094   0.01997303
   0.04929444   0.09618223   0.11091988   0.13485775   0.16973566
   0.19961888   0.22150391   0.23732947   0.24362653   0.26452567
   0.27427889   0.2921139    0.29762803   0.31733358   0.32218482
   0.33851478   0.35540967   0.36112738   0.38700787   0.4152785
   0.42714243   0.43467642   0.44120966   0.44313613   0.47701769
   0.48833685   0.51167574   0.52761212   0.52867302   0.54449682
   0.54949127   0.57113816   0.6026844    0.62035495   0.65540878
   0.65843527   0.68448873   0.71672939   0.72208464   0.76365118
   0.77423518   0.80058466   0.85832347   0.86902965   0.88295661
   0.92154314   0.93645226   0.97291071   1.08018352]
nelec by numeric integration = 146.0000022466935
    CPU time for vxc     37.99 sec, wall time     15.95 sec
E1 = -4125.8363554403295  Ecoul = 1907.9103545287373  Exc = -124.82984014644802
cycle= 6 E= -835.585003784319  delta_E= -0.000396  |g|= 0.025  |ddm|= 0.105
    CPU time for cycle= 6     38.31 sec, wall time     16.01 sec
  HOMO = -0.0899054332173886  LUMO = -0.038408285847176
  mo_energy =
[-10.03920025 -10.03261073 -10.03181434 -10.02905718 -10.02219105
 -10.01981967 -10.01841179 -10.01551675 -10.01419757 -10.01415746
 -10.013046   -10.01274828 -10.0115863  -10.00994341 -10.00891891
 -10.00829829 -10.0079656  -10.0079059   -9.99952123  -9.99646576
  -9.99613267  -9.9959781   -0.8914311   -0.84407578  -0.82885452
  -0.80257039  -0.76947502  -0.75622108  -0.7404328   -0.72396028
  -0.6905076   -0.68334892  -0.64595306  -0.63236266  -0.59448064
  -0.59345146  -0.58664824  -0.57112757  -0.54910898  -0.51999966
  -0.49312765  -0.48597359  -0.47098176  -0.45665665  -0.45258517
  -0.44472746  -0.42936289  -0.42369911  -0.40758772  -0.40057281
  -0.38971822  -0.37861246  -0.37245272  -0.36912844  -0.3640197
  -0.35572131  -0.33947373  -0.33303195  -0.32793105  -0.31115356
  -0.29886341  -0.29802013  -0.27383976  -0.26690301  -0.26547634
  -0.24726859  -0.22920814  -0.21381839  -0.20209551  -0.19008019
  -0.17047123  -0.14958156  -0.08990543  -0.03840829   0.0209775
   0.04957415   0.09721125   0.11152975   0.13572109   0.16975208
   0.19972573   0.22189469   0.23755659   0.24426333   0.26441745
   0.27607945   0.2926005    0.29905747   0.31743515   0.32227963
   0.33887651   0.35585773   0.36252383   0.38660072   0.41587809
   0.42753976   0.43473275   0.44237147   0.44338257   0.47726483
   0.48835904   0.51154673   0.52885323   0.52962418   0.54386337
   0.5501956    0.57125273   0.60327738   0.62072007   0.65583355
   0.65948232   0.68516245   0.71753159   0.72286355   0.76453558
   0.77388502   0.80154331   0.85932819   0.86948956   0.8828876
   0.92190272   0.93667729   0.97267542   1.08091149]
nelec by numeric integration = 146.00000224454612
    CPU time for vxc     40.31 sec, wall time     17.18 sec
E1 = -4125.763199946229  Ecoul = 1907.836116041385  Exc = -124.8289905803053
cycle= 7 E= -835.585237211428  delta_E= -0.000233  |g|= 0.00679  |ddm|= 0.0458
    CPU time for cycle= 7     40.89 sec, wall time     17.28 sec
  HOMO = -0.0899907118548189  LUMO = -0.0383084926786007
  mo_energy =
[-10.03968602 -10.03188508 -10.03163869 -10.0287767  -10.02229083
 -10.01895624 -10.01761419 -10.01571575 -10.01450632 -10.01356694
 -10.01333292 -10.01273082 -10.01223599 -10.00945727 -10.00907249
 -10.00899883 -10.00822614 -10.00690737  -9.99829068  -9.99658805
  -9.99652851  -9.99530256  -0.8917497   -0.84376593  -0.82854984
  -0.80223854  -0.77001161  -0.75590524  -0.74022136  -0.72394306
  -0.69041873  -0.68303152  -0.64594931  -0.63238903  -0.5943882
  -0.59335907  -0.58659313  -0.57092301  -0.54876772  -0.52001634
  -0.49309433  -0.4858384   -0.47090396  -0.45654027  -0.45250269
  -0.44447531  -0.42943683  -0.42371196  -0.40742748  -0.40051099
  -0.38975772  -0.37847731  -0.37278767  -0.36891454  -0.36407936
  -0.35539553  -0.33927639  -0.33269611  -0.32771849  -0.31104812
  -0.29883682  -0.29793129  -0.27356948  -0.26679588  -0.2658412
  -0.24694588  -0.22902166  -0.21362046  -0.20226626  -0.18989029
  -0.17023993  -0.1493113   -0.08999071  -0.03830849   0.02123774
   0.04966421   0.09750513   0.11171209   0.1360618    0.16937399
   0.19978498   0.22182722   0.23794723   0.24450482   0.26407035
   0.2761952    0.29294015   0.29905711   0.31714715   0.32256689
   0.33871651   0.35630919   0.36277391   0.38612964   0.41648176
   0.42769654   0.43484902   0.44264068   0.44348966   0.47734556
   0.48863643   0.51155972   0.52895901   0.52958126   0.543872
   0.55041618   0.57144984   0.60350724   0.62072913   0.6562331
   0.6595571    0.68544139   0.71788498   0.72325811   0.76484555
   0.77351892   0.8015473    0.85917258   0.86973823   0.88253245
   0.9222514    0.93705463   0.97236806   1.0805676 ]
nelec by numeric integration = 146.00000224379596
    CPU time for vxc     38.17 sec, wall time     15.89 sec
E1 = -4125.749763843641  Ecoul = 1907.8227120921863  Exc = -124.8290400116901
cycle= 8 E= -835.585254489423  delta_E= -1.73e-05  |g|= 0.0019  |ddm|= 0.0119
    CPU time for cycle= 8     38.50 sec, wall time     15.95 sec
  HOMO = -0.0900373969282497  LUMO = -0.0383129217129246
  mo_energy =
[-10.03970795 -10.03200295 -10.03180154 -10.02888994 -10.02193924
 -10.01885632 -10.01781789 -10.01582509 -10.01445565 -10.01340059
 -10.01315058 -10.01282576 -10.01217295 -10.00942927 -10.00921537
 -10.00920947 -10.00832843 -10.007052    -9.998491    -9.99651755
  -9.99642275  -9.99561815  -0.8916864   -0.84385457  -0.82860416
  -0.8023148   -0.76997557  -0.75595634  -0.7402757   -0.72398325
  -0.69045253  -0.68306807  -0.6459647   -0.63240914  -0.59440773
  -0.59337997  -0.5866613   -0.57096874  -0.54880926  -0.52002247
  -0.49310803  -0.48587738  -0.47094112  -0.45657023  -0.45255471
  -0.44451572  -0.42943726  -0.42372253  -0.40743667  -0.40050781
  -0.3897389   -0.37852188  -0.37274437  -0.36898121  -0.36408977
  -0.35545609  -0.33932183  -0.33270653  -0.32775741  -0.31105841
  -0.2988614   -0.29792212  -0.27362031  -0.26684089  -0.26582336
  -0.24700452  -0.22906369  -0.21366744  -0.20222134  -0.18993542
  -0.17027917  -0.14934359  -0.0900374   -0.03831292   0.02122057
   0.04964973   0.09742923   0.11167711   0.1359975    0.16939393
   0.19975522   0.221895     0.23785976   0.24445936   0.26411777
   0.2761458    0.29287479   0.29912907   0.31721174   0.32252392
   0.33875239   0.35623516   0.36270101   0.38617238   0.4163895
   0.42765215   0.43483668   0.44258014   0.44345431   0.47728161
   0.48864471   0.51154242   0.52890569   0.52950946   0.54387954
   0.55036482   0.57143026   0.6034284    0.62074209   0.65621265
   0.65951661   0.68534483   0.71781678   0.72321313   0.76482318
   0.77353404   0.80150358   0.85911595   0.86972789   0.88251782
   0.92214275   0.93696085   0.97245929   1.08061255]
nelec by numeric integration = 146.00000224405935
    CPU time for vxc     38.61 sec, wall time     16.17 sec
E1 = -4125.752713984101  Ecoul = 1907.8257007204652  Exc = -124.82907964327381
cycle= 9 E= -835.585255633188  delta_E= -1.14e-06  |g|= 0.000823  |ddm|= 0.00274
    CPU time for cycle= 9     39.02 sec, wall time     16.24 sec
  HOMO = -0.0900421692937112  LUMO = -0.0383021845927
  mo_energy =
[-10.03973052 -10.03197479 -10.0317602  -10.02883873 -10.0220692
 -10.0189774  -10.01780236 -10.01583149 -10.01441892 -10.01355666
 -10.01310663 -10.01278608 -10.01220798 -10.00937929 -10.00918281
 -10.00917445 -10.00840908 -10.00698211  -9.99850745  -9.99663375
  -9.99652261  -9.99561596  -0.8917105   -0.84384869  -0.82863092
  -0.8023157   -0.76998044  -0.75599084  -0.7402612   -0.72399237
  -0.69046425  -0.68309594  -0.64597418  -0.63241179  -0.59443111
  -0.59339136  -0.58664153  -0.57098746  -0.54883318  -0.52002723
  -0.49312065  -0.48588682  -0.4709361   -0.45657318  -0.45255838
  -0.4445297   -0.42944234  -0.42373521  -0.40745804  -0.40050859
  -0.38975327  -0.37854323  -0.37276262  -0.36897686  -0.36408622
  -0.3554631   -0.33932668  -0.33274355  -0.32776804  -0.31104531
  -0.2988473   -0.29793265  -0.27361705  -0.26684575  -0.26582441
  -0.24702949  -0.22906223  -0.21367859  -0.20221667  -0.18995213
  -0.17029438  -0.14937465  -0.09004217  -0.03830218   0.02119523
   0.04963823   0.0974145    0.11167416   0.13597402   0.16939146
   0.19975196   0.22190657   0.23787071   0.24445311   0.26411959
   0.27614986   0.29286674   0.29915069   0.31721528   0.3225124
   0.33874494   0.35622502   0.36269025   0.3861682    0.41635695
   0.42764858   0.43481691   0.44256996   0.44345042   0.47728459
   0.48860136   0.51153295   0.52891578   0.52951895   0.54384319
   0.55034529   0.57140412   0.60342358   0.62075324   0.65616943
   0.65952822   0.68536021   0.7177989    0.72317032   0.76477299
   0.77351979   0.80152008   0.85911892   0.86967524   0.88251394
   0.92215122   0.93696655   0.97241486   1.08061103]
nelec by numeric integration = 146.00000224413026
    CPU time for vxc     38.59 sec, wall time     16.02 sec
E1 = -4125.752359360165  Ecoul = 1907.8253814816464  Exc = -124.82911529283331
cycle= 10 E= -835.585255897631  delta_E= -2.64e-07  |g|= 0.000202  |ddm|= 0.00148
    CPU time for cycle= 10     39.02 sec, wall time     16.08 sec
  HOMO = -0.0900530723346891  LUMO = -0.0383114959679154
  mo_energy =
[-10.03971785 -10.0320009  -10.03179026 -10.02884398 -10.02210905
 -10.01896356 -10.01781735 -10.0158095  -10.01445753 -10.01355492
 -10.01310532 -10.01283231 -10.01220998 -10.00939285 -10.00925481
 -10.00919635 -10.00834675 -10.00697361  -9.99849587  -9.99659734
  -9.99653263  -9.99565318  -0.89172521  -0.84385909  -0.82862834
  -0.80232544  -0.76999194  -0.75597865  -0.74027022  -0.72400914
  -0.69047353  -0.68308984  -0.64597728  -0.63241955  -0.59443271
  -0.59339492  -0.58665598  -0.57098814  -0.54883018  -0.52003536
  -0.49312415  -0.48589084  -0.47094726  -0.45657552  -0.45256509
  -0.44452779  -0.42944785  -0.42374104  -0.40745688  -0.40052058
  -0.38976227  -0.37854603  -0.37276742  -0.3689843   -0.36409761
  -0.35546598  -0.33932845  -0.33273397  -0.32777028  -0.31105461
  -0.29886014  -0.29794022  -0.27362082  -0.26686317  -0.26583383
  -0.24702054  -0.22906798  -0.2136832   -0.20222714  -0.18995586
  -0.17030052  -0.1493714   -0.09005307  -0.0383115    0.02119644
   0.04962549   0.09740853   0.11166696   0.1359802    0.16937925
   0.19974519   0.2218912    0.23786543   0.2444506    0.26411292
   0.27613863   0.29286381   0.29914334   0.31720536   0.32251644
   0.33873104   0.35622709   0.36268726   0.3861648    0.41637075
   0.42764019   0.43481153   0.44257211   0.44344097   0.47727491
   0.48861249   0.51152868   0.52890661   0.52950203   0.54382333
   0.55034386   0.57140724   0.60341283   0.62074535   0.65617728
   0.65951853   0.68535115   0.71780228   0.7231771    0.76478562
   0.77350828   0.8015067    0.85909944   0.86968536   0.88250004
   0.92214547   0.93695692   0.97240009   1.08059509]
nelec by numeric integration = 146.0000022441671
    CPU time for vxc     40.77 sec, wall time     17.23 sec
E1 = -4125.752890213902  Ecoul = 1907.8259268323602  Exc = -124.82912979853742
cycle= 11 E= -835.585255906357  delta_E= -8.73e-09  |g|= 0.000147  |ddm|= 0.000581
    CPU time for cycle= 11     41.18 sec, wall time     17.29 sec
  HOMO = -0.0900474837710592  LUMO = -0.0383050915966981
  mo_energy =
[-10.03970538 -10.03198549 -10.03177721 -10.02884001 -10.02207916
 -10.0189509  -10.01780419 -10.01581055 -10.01443943 -10.01354271
 -10.0130995  -10.01280443 -10.01221285 -10.00939758 -10.00922223
 -10.00917383 -10.00836971 -10.00697677  -9.99849758  -9.99661572
  -9.99652431  -9.99564028  -0.89171287  -0.8438512   -0.82862353
  -0.80231654  -0.76998694  -0.75597833  -0.74026459  -0.72399865
  -0.69046705  -0.683087    -0.64597305  -0.63241457  -0.59442791
  -0.59338928  -0.5866481   -0.57098474  -0.54882573  -0.52002946
  -0.4931203   -0.48588495  -0.47094002  -0.45657335  -0.45255846
  -0.44452462  -0.42944495  -0.42373623  -0.40745271  -0.40051264
  -0.38975409  -0.3785416   -0.37276445  -0.36897931  -0.36409062
  -0.35546071  -0.33932483  -0.33273248  -0.32776601  -0.31104928
  -0.29885418  -0.29793535  -0.27361746  -0.26685356  -0.26582962
  -0.24701948  -0.22906234  -0.21367835  -0.20222413  -0.18995063
  -0.17029443  -0.14936777  -0.09004748  -0.03830509   0.02120066
   0.04963396   0.09741443   0.11167322   0.13598198   0.16938507
   0.19975093   0.22189637   0.23787204   0.24445536   0.26411402
   0.27614499   0.29286878   0.29914474   0.31720704   0.32251945
   0.33874023   0.35623155   0.36269177   0.38616356   0.41636903
   0.42764692   0.43481857   0.44257381   0.44344886   0.47728022
   0.4886146    0.51153159   0.52891277   0.52951118   0.54383542
   0.55034826   0.57141154   0.60342039   0.62075161   0.65618208
   0.65952488   0.68535648   0.71780403   0.72317904   0.76478569
   0.7735135    0.80151475   0.85910932   0.86968641   0.88250584
   0.92215522   0.93696685   0.97241446   1.08060782]
nelec by numeric integration = 146.0000022441614
    CPU time for vxc     39.26 sec, wall time     16.81 sec
E1 = -4125.752236393711  Ecoul = 1907.825256952683  Exc = -124.82911374660341
cycle= 12 E= -835.58525591391  delta_E= -7.55e-09  |g|= 3.07e-05  |ddm|= 0.000242
    CPU time for cycle= 12     39.80 sec, wall time     16.89 sec
  HOMO = -0.0900451887859015  LUMO = -0.0383027210725116
  mo_energy =
[-10.03971008 -10.03197898 -10.03177402 -10.02883676 -10.02207916
 -10.01895869 -10.01780318 -10.01581393 -10.01443724 -10.01353704
 -10.01309874 -10.01279711 -10.01220995 -10.00939302 -10.00921881
 -10.0091797  -10.00837031 -10.00696574  -9.99849326  -9.99660462
  -9.9965236   -9.99563728  -0.8917129   -0.84384808  -0.82862329
  -0.80231418  -0.76998555  -0.75597796  -0.74026172  -0.723997
  -0.69046478  -0.6830862   -0.64597182  -0.6324129   -0.59442689
  -0.59338801  -0.58664557  -0.57098244  -0.54882575  -0.52002862
  -0.49311878  -0.48588382  -0.4709389   -0.45657165  -0.45255836
  -0.44452366  -0.42944308  -0.42373509  -0.40745262  -0.40051126
  -0.38975312  -0.37853991  -0.37276379  -0.36897702  -0.36408897
  -0.35545874  -0.33932327  -0.33273254  -0.32776497  -0.31104758
  -0.29885215  -0.29793402  -0.27361406  -0.26685159  -0.265828
  -0.24701843  -0.22906021  -0.21367706  -0.20222294  -0.18994967
  -0.17029263  -0.14936651  -0.09004519  -0.03830272   0.02120189
   0.04963578   0.0974168    0.11167514   0.13598364   0.16938623
   0.19975203   0.22189713   0.23787244   0.2444559    0.26411477
   0.27614726   0.29287145   0.29914641   0.3172082    0.32251955
   0.33874099   0.35623209   0.36269427   0.38616432   0.41637183
   0.42764828   0.43481823   0.44257616   0.44344913   0.47728232
   0.48861273   0.51153395   0.52891531   0.52951344   0.54383639
   0.55035014   0.57141125   0.6034226    0.62075358   0.65618101
   0.65952701   0.68536035   0.71780785   0.72318188   0.76478701
   0.77351557   0.80151723   0.85911188   0.86968769   0.88250826
   0.92215439   0.93696863   0.97241414   1.08060727]
nelec by numeric integration = 146.00000224416283
    CPU time for vxc     38.62 sec, wall time     16.38 sec
E1 = -4125.752030040556  Ecoul = 1907.8250483208228  Exc = -124.82911146796071
cycle= 13 E= -835.585255913972  delta_E= -6.18e-11  |g|= 2.72e-05  |ddm|= 8.51e-05
    CPU time for cycle= 13     39.22 sec, wall time     16.47 sec
  HOMO = -0.0900464515295022  LUMO = -0.0383040457101096
  mo_energy =
[-10.03971259 -10.03198354 -10.03177525 -10.02883871 -10.02208014
 -10.01895462 -10.0178051  -10.01581292 -10.01443877 -10.01354032
 -10.01309959 -10.01280209 -10.01220965 -10.00939403 -10.00922037
 -10.00917668 -10.00836988 -10.00697185  -9.99849568  -9.99660939
  -9.99652447  -9.99563809  -0.89171417  -0.8438501   -0.82862363
  -0.80231588  -0.76998636  -0.75597841  -0.74026336  -0.72399839
  -0.69046627  -0.6830869   -0.64597269  -0.63241386  -0.59442795
  -0.59338917  -0.58664717  -0.57098409  -0.54882609  -0.52002926
  -0.49311981  -0.48588481  -0.4709397   -0.45657252  -0.45255862
  -0.44452439  -0.4294441   -0.42373582  -0.40745299  -0.40051238
  -0.38975428  -0.37854106  -0.37276419  -0.36897841  -0.36409012
  -0.35546014  -0.33932429  -0.33273275  -0.32776563  -0.3110486
  -0.29885324  -0.29793475  -0.27361611  -0.26685274  -0.26582891
  -0.24701917  -0.2290615   -0.21367789  -0.20222324  -0.18995037
  -0.17029378  -0.14936731  -0.09004645  -0.03830405   0.02120104
   0.04963465   0.09741521   0.11167393   0.13598255   0.16938545
   0.19975134   0.22189702   0.23787193   0.24445552   0.26411461
   0.27614598   0.29286965   0.29914585   0.31720825   0.32251909
   0.33873997   0.35623146   0.36269271   0.38616435   0.41637007
   0.42764724   0.43481802   0.44257464   0.4434486    0.47728102
   0.48861333   0.51153252   0.52891351   0.52951206   0.54383551
   0.55034878   0.57141095   0.60342117   0.62075196   0.65618126
   0.65952565   0.68535815   0.71780553   0.72318      0.7647861
   0.77351465   0.80151562   0.85911051   0.86968687   0.88250717
   0.92215436   0.93696714   0.97241278   1.08060582]
nelec by numeric integration = 146.00000224416112
    CPU time for vxc     39.22 sec, wall time     16.40 sec
E1 = -4125.752213760551  Ecoul = 1907.825234144664  Exc = -124.82911357209197
cycle= 14 E= -835.585255914257  delta_E= -2.85e-10  |g|= 4.31e-06  |ddm|= 4.71e-05
    CPU time for cycle= 14     39.67 sec, wall time     16.48 sec
  HOMO = -0.0900465839441105  LUMO = -0.0383041658666276
  mo_energy =
[-10.03971164 -10.03198331 -10.03177543 -10.0288389  -10.02207971
 -10.01895583 -10.01780442 -10.01581349 -10.01443846 -10.01354091
 -10.01309986 -10.01280259 -10.01221065 -10.00939439 -10.00922049
 -10.00917788 -10.00837008 -10.00697259  -9.99849576  -9.99660941
  -9.99652429  -9.99563807  -0.89171387  -0.8438502   -0.82862399
  -0.80231608  -0.76998638  -0.75597876  -0.74026353  -0.72399826
  -0.69046628  -0.68308719  -0.64597286  -0.63241398  -0.59442796
  -0.59338925  -0.58664718  -0.57098405  -0.54882636  -0.52002936
  -0.49311988  -0.48588498  -0.47093981  -0.45657267  -0.4525588
  -0.44452466  -0.42944415  -0.42373592  -0.40745324  -0.40051236
  -0.38975422  -0.37854114  -0.37276419  -0.36897847  -0.3640901
  -0.35546029  -0.3393244   -0.33273305  -0.32776579  -0.31104861
  -0.29885325  -0.29793479  -0.27361619  -0.2668527   -0.26582894
  -0.24701947  -0.22906168  -0.21367796  -0.20222324  -0.18995048
  -0.17029388  -0.14936758  -0.09004658  -0.03830417   0.0212008
   0.04963456   0.09741524   0.11167378   0.1359823    0.16938545
   0.19975112   0.22189711   0.23787162   0.24445527   0.26411456
   0.27614599   0.29286955   0.29914591   0.31720818   0.32251885
   0.33874011   0.35623116   0.36269261   0.38616421   0.41636995
   0.42764716   0.43481791   0.44257458   0.44344852   0.47728099
   0.48861297   0.51153247   0.52891353   0.52951201   0.54383567
   0.55034871   0.57141071   0.60342112   0.620752     0.65618079
   0.65952553   0.68535804   0.71780537   0.72317987   0.76478581
   0.7735145    0.80151556   0.85911037   0.86968654   0.88250702
   0.92215389   0.93696687   0.97241313   1.08060627]
nelec by numeric integration = 146.00000224416095
    CPU time for vxc     38.81 sec, wall time     16.31 sec
E1 = -4125.752201875794  Ecoul = 1907.825222689362  Exc = -124.82911400155294
cycle= 15 E= -835.585255914263  delta_E= -5.46e-12  |g|= 2.22e-06  |ddm|= 9.05e-06
    CPU time for cycle= 15     39.31 sec, wall time     16.40 sec
  HOMO = -0.0900466842143806  LUMO = -0.0383042484698672
  mo_energy =
[-10.03971195 -10.03198367 -10.03177564 -10.02883927 -10.02207989
 -10.01895501 -10.0178054  -10.01581307 -10.014439   -10.01354077
 -10.01310099 -10.01280219 -10.01220945 -10.00939381 -10.00922079
 -10.0091772  -10.00837036 -10.0069724   -9.99849606  -9.99661028
  -9.99652373  -9.99563784  -0.89171406  -0.84385038  -0.82862393
  -0.80231608  -0.76998622  -0.75597872  -0.74026364  -0.72399847
  -0.69046636  -0.68308723  -0.64597286  -0.63241393  -0.59442809
  -0.59338928  -0.58664745  -0.57098428  -0.5488263   -0.52002933
  -0.49311989  -0.48588502  -0.47093983  -0.45657262  -0.45255883
  -0.44452459  -0.42944411  -0.42373584  -0.40745308  -0.40051244
  -0.38975432  -0.37854116  -0.37276402  -0.36897858  -0.36409028
  -0.35546037  -0.33932456  -0.33273298  -0.32776588  -0.31104892
  -0.29885341  -0.29793484  -0.27361632  -0.26685286  -0.26582885
  -0.24701948  -0.22906179  -0.21367803  -0.20222322  -0.18995053
  -0.17029392  -0.14936763  -0.09004668  -0.03830425   0.02120073
   0.04963455   0.09741499   0.11167366   0.13598222   0.16938555
   0.19975124   0.22189694   0.23787172   0.24445528   0.26411473
   0.27614563   0.29286942   0.29914543   0.31720829   0.32251892
   0.33873996   0.35623118   0.36269237   0.38616457   0.41636973
   0.4276471    0.43481797   0.44257431   0.44344849   0.47728097
   0.48861318   0.51153251   0.52891332   0.5295118    0.54383572
   0.55034859   0.57141082   0.603421     0.62075182   0.65618096
   0.65952532   0.68535788   0.7178052    0.72317969   0.76478577
   0.77351476   0.80151536   0.85911039   0.86968664   0.88250723
   0.92215413   0.93696693   0.97241302   1.0806059 ]
nelec by numeric integration = 146.00000224416144
    CPU time for vxc     38.20 sec, wall time     15.98 sec
E1 = -4125.752238593499  Ecoul = 1907.8252592381457  Exc = -124.82911383261659
Extra cycle  E= -835.585255914248  delta_E= 1.46e-11  |g|= 6.57e-06  |ddm|= 1.51e-05
    CPU time for scf_cycle    676.87 sec, wall time    280.78 sec
    CPU time for SCF    676.87 sec, wall time    280.78 sec
converged SCF energy = -835.585255914248
nelec by numeric integration = 146.00000224416144
    CPU time for vxc     37.87 sec, wall time     15.80 sec
 ** Mulliken pop  **
pop of  0 C 1s            1.99066
pop of  0 C 2s            1.08085
pop of  0 C 2px           0.98205
pop of  0 C 2py           0.96030
pop of  0 C 2pz           0.96737
pop of  1 C 1s            1.99043
pop of  1 C 2s            0.98511
pop of  1 C 2px           1.05102
pop of  1 C 2py           1.04121
pop of  1 C 2pz           1.04898
pop of  2 C 1s            1.99077
pop of  2 C 2s            1.12538
pop of  2 C 2px           1.02695
pop of  2 C 2py           0.94793
pop of  2 C 2pz           1.00135
pop of  3 C 1s            1.99078
pop of  3 C 2s            1.14881
pop of  3 C 2px           1.00351
pop of  3 C 2py           0.93320
pop of  3 C 2pz           0.99406
pop of  4 C 1s            1.99217
pop of  4 C 2s            1.13694
pop of  4 C 2px           0.94641
pop of  4 C 2py           0.97467
pop of  4 C 2pz           0.95364
pop of  5 C 1s            1.99141
pop of  5 C 2s            1.20870
pop of  5 C 2px           0.95445
pop of  5 C 2py           0.90577
pop of  5 C 2pz           0.92805
pop of  6 C 1s            1.99130
pop of  6 C 2s            1.18354
pop of  6 C 2px           0.99572
pop of  6 C 2py           0.91190
pop of  6 C 2pz           0.97306
pop of  7 C 1s            1.99101
pop of  7 C 2s            1.08273
pop of  7 C 2px           1.00308
pop of  7 C 2py           0.99756
pop of  7 C 2pz           0.99135
pop of  8 C 1s            1.99026
pop of  8 C 2s            1.08028
pop of  8 C 2px           0.98831
pop of  8 C 2py           0.98909
pop of  8 C 2pz           0.97100
pop of  9 C 1s            1.99035
pop of  9 C 2s            1.09487
pop of  9 C 2px           1.01466
pop of  9 C 2py           0.96406
pop of  9 C 2pz           0.95394
pop of  10 C 1s           1.99122
pop of  10 C 2s           1.13279
pop of  10 C 2px          1.01054
pop of  10 C 2py          0.93922
pop of  10 C 2pz          1.02199
pop of  11 C 1s           1.99097
pop of  11 C 2s           1.16272
pop of  11 C 2px          0.98529
pop of  11 C 2py          0.93893
pop of  11 C 2pz          1.00750
pop of  12 C 1s           1.99101
pop of  12 C 2s           1.18272
pop of  12 C 2px          0.98087
pop of  12 C 2py          0.92696
pop of  12 C 2pz          0.91498
pop of  13 C 1s           1.99079
pop of  13 C 2s           1.09235
pop of  13 C 2px          0.99236
pop of  13 C 2py          0.95921
pop of  13 C 2pz          0.96768
pop of  14 C 1s           1.99141
pop of  14 C 2s           1.18988
pop of  14 C 2px          0.97022
pop of  14 C 2py          0.94669
pop of  14 C 2pz          1.01001
pop of  15 C 1s           1.99057
pop of  15 C 2s           1.08703
pop of  15 C 2px          1.04381
pop of  15 C 2py          0.98272
pop of  15 C 2pz          1.01328
pop of  16 C 1s           1.99118
pop of  16 C 2s           1.15220
pop of  16 C 2px          0.97773
pop of  16 C 2py          0.94219
pop of  16 C 2pz          0.94097
pop of  17 C 1s           1.99158
pop of  17 C 2s           1.21644
pop of  17 C 2px          0.91204
pop of  17 C 2py          0.93787
pop of  17 C 2pz          0.93014
pop of  18 C 1s           1.99055
pop of  18 C 2s           1.10589
pop of  18 C 2px          1.00695
pop of  18 C 2py          0.99189
pop of  18 C 2pz          1.03039
pop of  19 C 1s           1.99163
pop of  19 C 2s           1.14482
pop of  19 C 2px          0.99442
pop of  19 C 2py          0.93168
pop of  19 C 2pz          1.00574
pop of  20 C 1s           1.99060
pop of  20 C 2s           1.12764
pop of  20 C 2px          1.00882
pop of  20 C 2py          0.97312
pop of  20 C 2pz          0.96082
pop of  21 C 1s           1.99048
pop of  21 C 2s           1.06730
pop of  21 C 2px          1.02387
pop of  21 C 2py          1.04737
pop of  21 C 2pz          0.99133
pop of  22 H 1s           0.90744
pop of  23 H 1s           0.91207
pop of  24 H 1s           0.97397
pop of  25 H 1s           0.95498
pop of  26 H 1s           0.90225
pop of  27 H 1s           0.96626
pop of  28 H 1s           0.88278
pop of  29 H 1s           0.89966
pop of  30 H 1s           0.90330
pop of  31 H 1s           0.91354
pop of  32 H 1s           0.89460
pop of  33 H 1s           0.88870
pop of  34 H 1s           0.91591
pop of  35 H 1s           0.90014
 ** Mulliken atomic charges  **
charge of    0C =      0.01877
charge of    1C =     -0.11675
charge of    2C =     -0.09238
charge of    3C =     -0.07037
charge of    4C =     -0.00383
charge of    5C =      0.01162
charge of    6C =     -0.05552
charge of    7C =     -0.06573
charge of    8C =     -0.01893
charge of    9C =     -0.01788
charge of   10C =     -0.09577
charge of   11C =     -0.08541
charge of   12C =      0.00346
charge of   13C =     -0.00238
charge of   14C =     -0.10821
charge of   15C =     -0.11740
charge of   16C =     -0.00427
charge of   17C =      0.01194
charge of   18C =     -0.12567
charge of   19C =     -0.06830
charge of   20C =     -0.06100
charge of   21C =     -0.12036
charge of   22H =      0.09256
charge of   23H =      0.08793
charge of   24H =      0.02603
charge of   25H =      0.04502
charge of   26H =      0.09775
charge of   27H =      0.03374
charge of   28H =      0.11722
charge of   29H =      0.10034
charge of   30H =      0.09670
charge of   31H =      0.08646
charge of   32H =      0.10540
charge of   33H =      0.11130
charge of   34H =      0.08409
charge of   35H =      0.09986
Dipole moment(X, Y, Z, Debye):  0.01264, -0.65655, -0.49315
nelec by numeric integration = 146.00000224416144
    CPU time for vxc     37.93 sec, wall time     15.83 sec
E1 = -4125.752238593499  Ecoul = 1907.8252592381457  Exc = -124.82911383261659
nelec by numeric integration = 146.00000224416144
    CPU time for vxc     38.10 sec, wall time     15.94 sec
E1 = -4125.752238593499  Ecoul = 1907.8252592381457  Exc = -124.82911383261659
