System: uname_result(system='Linux', node='cosmopc18', release='5.15.0-97-generic', version='#107-Ubuntu SMP Wed Feb 7 13:26:48 UTC 2024', machine='x86_64')  Threads 4
Python 3.11.8 (main, Feb 26 2024, 21:39:34) [GCC 11.2.0]
numpy 1.26.4  scipy 1.11.4
Date: Tue Apr  9 14:10:08 2024
PySCF version 2.3.0
PySCF path  /home/saade/miniconda3/envs/tutorial/lib/python3.11/site-packages/pyscf

[ENV] PYSCFAD_BACKEND torch
[CONFIG] conf_file None
[INPUT] verbose = 5
[INPUT] max_memory = 4000 
[INPUT] num. atoms = 36
[INPUT] num. electrons = 146
[INPUT] charge = 0
[INPUT] spin (= nelec alpha-beta = 2S) = 0
[INPUT] symmetry False subgroup None
[INPUT] Mole.unit = angstrom
[INPUT] Symbol           X                Y                Z      unit          X                Y                Z       unit  Magmom
[INPUT]  1 C     -0.114235000000   3.623686000000   0.765113000000 AA   -0.215872863840   6.847774101421   1.445854024344 Bohr   0.0
[INPUT]  2 C     -0.048462000000   3.690235000000  -0.632351000000 AA   -0.091579907449   6.973533485284  -1.194970204595 Bohr   0.0
[INPUT]  3 C     -0.095141000000   4.835240000000   1.646335000000 AA   -0.179790433217   9.137279346542   3.111122259286 Bohr   0.0
[INPUT]  4 C      0.014183000000   2.587659000000   1.455984000000 AA    0.026801985625   4.889966813766   2.751411001749 Bohr   0.0
[INPUT]  5 C     -0.080105000000   4.967980000000  -1.433661000000 AA   -0.151376511208   9.388121592317  -2.709226645470 Bohr   0.0
[INPUT]  6 C      0.128135000000   2.479897000000  -1.396302000000 AA    0.242140056971   4.686326147131  -2.638628367182 Bohr   0.0
[INPUT]  7 C     -0.087369000000   6.012966000000  -0.676439000000 AA   -0.165103481777  11.362858936321  -1.278284449975 Bohr   0.0
[INPUT]  8 C     -0.036215000000   6.114855000000   0.826990000000 AA   -0.068436431601  11.555401241427   1.562784607754 Bohr   0.0
[INPUT]  9 C      0.089305000000   1.242389000000   0.895239000000 AA    0.168761991554   2.347774950172   1.691756526030 Bohr   0.0
[INPUT] 10 C      0.036027000000   1.225016000000  -0.717766000000 AA    0.068081163090   2.314944738210  -1.356381161525 Bohr   0.0
[INPUT] 11 C      0.028257000000  -0.036053000000   1.361279000000 AA    0.053397991102  -0.068130295969   2.572444489122 Bohr   0.0
[INPUT] 12 C     -0.190686000000  -0.070619000000  -1.285873000000 AA   -0.360344315789  -0.133450569191  -2.429947800973 Bohr   0.0
[INPUT] 13 C     -0.163202000000  -1.217331000000   0.470136000000 AA   -0.308407082981  -2.300422192943   0.888428281299 Bohr   0.0
[INPUT] 14 C     -0.039664000000  -1.265617000000  -0.653152000000 AA   -0.074954097005  -2.391669508594  -1.234278397712 Bohr   0.0
[INPUT] 15 C     -0.092670000000  -2.462272000000   1.470382000000 AA   -0.175120919963  -4.653019724185   2.778619278490 Bohr   0.0
[INPUT] 16 C     -0.011198000000  -2.487036000000  -1.270881000000 AA   -0.021161153143  -4.699816901934  -2.401617026913 Bohr   0.0
[INPUT] 17 C      0.028621000000  -3.508415000000   0.496542000000 AA    0.054085851411  -6.629943481316   0.938328389344 Bohr   0.0
[INPUT] 18 C      0.075847000000  -3.519733000000  -0.681917000000 AA    0.143330057370  -6.651331401594  -1.288636369685 Bohr   0.0
[INPUT] 19 C      0.120677000000  -4.764909000000   1.530085000000 AA    0.228046479534  -9.004373018475   2.891441597305 Bohr   0.0
[INPUT] 20 C     -0.107835000000  -4.932525000000  -1.560449000000 AA   -0.203778616642  -9.321121352570  -2.948821241351 Bohr   0.0
[INPUT] 21 C     -0.009920000000  -6.130322000000   0.746231000000 AA   -0.018746083156 -11.584629635396   1.410172215660 Bohr   0.0
[INPUT] 22 C     -0.101264000000  -6.136487000000  -0.531024000000 AA   -0.191361226278 -11.596279796954  -1.003489925571 Bohr   0.0
[INPUT] 23 H      0.004153000000   4.973058000000   2.480834000000 AA    0.007848032595   9.397717621577   4.688096820509 Bohr   0.0
[INPUT] 24 H      0.109900000000   2.620734000000   2.499418000000 AA    0.207680901090   4.952469505336   4.723215490808 Bohr   0.0
[INPUT] 25 H     -0.032449000000   4.928667000000  -2.404558000000 AA   -0.061319723016   9.313830789182  -4.543956070632 Bohr   0.0
[INPUT] 26 H     -0.041192000000   2.448180000000  -2.395488000000 AA   -0.077841598523   4.626389703638  -4.526816254682 Bohr   0.0
[INPUT] 27 H     -0.087182000000   7.049522000000  -1.306006000000 AA   -0.164750102992  13.321665889096  -2.467993657039 Bohr   0.0
[INPUT] 28 H      0.169989000000   7.082262000000   1.224063000000 AA    0.321232654189  13.383535522414   2.313143829213 Bohr   0.0
[INPUT] 29 H     -0.026800000000   0.055977000000   2.491539000000 AA   -0.050644660138   0.105781199275   4.708326338673 Bohr   0.0
[INPUT] 30 H      0.006103000000  -0.003891000000  -2.663475000000 AA    0.011532998538  -0.007352924351  -5.033238289626 Bohr   0.0
[INPUT] 31 H      0.027970000000  -2.549447000000   2.469958000000 AA    0.052855639704  -4.817756599094   4.667544159178 Bohr   0.0
[INPUT] 32 H      0.061587000000  -2.364479000000  -2.206156000000 AA    0.116382562834  -4.468217737285  -4.169030628066 Bohr   0.0
[INPUT] 33 H      0.032363000000  -4.654967000000   2.478979000000 AA    0.061157206569  -8.796612748888   4.684591378548 Bohr   0.0
[INPUT] 34 H      0.127390000000  -4.868257000000  -2.356069000000 AA    0.240732211008  -9.199672433997  -4.452325140578 Bohr   0.0
[INPUT] 35 H      0.007775000000  -7.096349000000   1.203417000000 AA    0.014692620618 -13.410156094331   2.274128543646 Bohr   0.0
[INPUT] 36 H     -0.069829000000  -7.078148000000  -1.136509000000 AA   -0.131957685552 -13.375761189138  -2.147690748103 Bohr   0.0
[INPUT] ---------------- BASIS SET ---------------- 
[INPUT] l, kappa, [nprim/nctr], expnt,             c_1 c_2 ...
[INPUT] H
[INPUT] 0    0    [3    /1   ]  3.42525091        0.15432897
                                0.62391373        0.53532814
                                0.1688554         0.44463454
[INPUT] C
[INPUT] 0    0    [3    /1   ]  71.616837         0.15432897
                                13.045096         0.53532814
                                3.5305122         0.44463454
[INPUT] 0    0    [3    /1   ]  2.9412494         -0.09996723
                                0.6834831         0.39951283
                                0.2222899         0.70011547
[INPUT] 1    0    [3    /1   ]  2.9412494         0.15591627
                                0.6834831         0.60768372
                                0.2222899         0.39195739

nuclear repulsion = 1502.17957971205
number of shells = 80
number of NR pGTOs = 372
number of NR cGTOs = 124
basis = sto3g
ecp = {}
CPU time:     39294.05
atom C rad-grids = 99, ang-grids = [ 50  50  50  50  50  50  50  50  50  50  50  50  50  50  50  50  50  50
  50  50  50  50  50  50  50  50  50  50  50  50  50  86  86  86  86  86
  86  86  86  86  86  86  86 434 434 434 434 434 434 434 434 434 590 590
 590 590 590 590 590 590 590 590 590 590 590 590 590 590 590 590 590 590
 590 590 590 590 590 590 590 434 434 434 434 434 434 434 434 434 434 434
 434 434 434 434 434 434 434 434 434]
atom H rad-grids = 99, ang-grids = [ 50  50  50  50  50  50  50  50  50  50  50  50  50  50  50  50  50  50
  50  50  50  50  50  50  50  50  50  50  86  86  86  86  86  86  86 434
 434 434 434 434 434 434 434 590 590 590 590 590 590 590 590 590 590 590
 590 590 590 590 590 590 590 590 590 590 590 590 590 590 590 434 434 434
 434 434 434 434 434 434 434 434 434 434 434 434 434 434 434 434 434 434
 434 434 434 434 434 434 434 434 434]
tot_boxes 5270, boxes in each direction [ 8 29 15]
Padding 0 grids
tot grids = 1157832


******** <class 'pyscf.dft.rks.RKS'> ********
method = RKS
initial guess = minao
damping factor = 0
level_shift factor = 0
DIIS = <class 'pyscf.scf.diis.CDIIS'>
diis_start_cycle = 1
diis_space = 8
SCF conv_tol = 1e-10
SCF conv_tol_grad = None
SCF max_cycles = 50
direct_scf = True
direct_scf_tol = 1e-13
chkfile to save SCF result = /home/saade/mlelec/tutorials/tmpbfhmolqt
max_memory 4000 MB (current use 638 MB)
XC library pyscf.dft.libxc version 6.1.0
    S. Lehtola, C. Steigemann, M. J.T. Oliveira, and M. A.L. Marques.,  SoftwareX 7, 1–5 (2018)
XC functionals = b3lypg
    P. J. Stephens, F. J. Devlin, C. F. Chabalowski, and M. J. Frisch.,  J. Phys. Chem. 98, 11623 (1994)
radial grids: 
    Treutler-Ahlrichs [JCP 102, 346 (1995); DOI:10.1063/1.469408] (M4) radial grids
    
becke partition: Becke, JCP 88, 2547 (1988); DOI:10.1063/1.454033
pruning grids: <function nwchem_prune at 0x7f9db5616ca0>
grids dens level: 3
symmetrized grids: False
atomic radii adjust function: <function treutler_atomic_radii_adjust at 0x7f9db5617380>
User specified grid scheme (99, 590)
small_rho_cutoff = 1e-07
Set gradient conv threshold to 1e-05
Initial guess from minao.
nelec by numeric integration = 145.26469932919358
    CPU time for vxc     37.35 sec, wall time     15.68 sec
E1 = -4103.573948350842  Ecoul = 1886.0201800828513  Exc = -126.21581556500415
init E= -841.590004120947
cond(S) = 30.323454930734552
    CPU time for initialize scf     47.19 sec, wall time     18.05 sec
  HOMO = -0.202758065096418  LUMO = -0.146101983961614
  mo_energy =
[-1.01785015e+01 -1.01669341e+01 -1.01576869e+01 -1.01465615e+01
 -1.01276116e+01 -1.01220345e+01 -1.01203811e+01 -1.01077862e+01
 -1.01039634e+01 -1.01002429e+01 -1.00975840e+01 -1.00937043e+01
 -1.00934989e+01 -1.00919861e+01 -1.00918905e+01 -1.00912167e+01
 -1.00890683e+01 -1.00887639e+01 -1.00869881e+01 -1.00852659e+01
 -1.00746440e+01 -1.00675346e+01 -1.16861687e+00 -1.07132480e+00
 -1.04358510e+00 -9.69996777e-01 -9.52046189e-01 -9.34839300e-01
 -9.21621936e-01 -8.90197180e-01 -8.59492941e-01 -8.23251175e-01
 -8.04614010e-01 -7.70933457e-01 -7.60056342e-01 -7.30586458e-01
 -7.19382399e-01 -6.95952855e-01 -6.65397695e-01 -6.34332398e-01
 -6.02212500e-01 -5.93671028e-01 -5.79991950e-01 -5.68437182e-01
 -5.62640847e-01 -5.41806329e-01 -5.28320313e-01 -5.20626527e-01
 -5.14344018e-01 -5.02652121e-01 -4.88040831e-01 -4.80475294e-01
 -4.59251663e-01 -4.53067853e-01 -4.44796014e-01 -4.39038729e-01
 -4.29727199e-01 -4.25882430e-01 -4.12966555e-01 -4.05062608e-01
 -4.00391162e-01 -3.75680428e-01 -3.63361634e-01 -3.46634290e-01
 -3.42293994e-01 -3.33194995e-01 -3.24724218e-01 -3.17912498e-01
 -2.93372140e-01 -2.81461970e-01 -2.65396301e-01 -2.28173149e-01
 -2.02758065e-01 -1.46101984e-01 -1.25004734e-01 -8.43523180e-02
 -6.65738614e-02 -4.17050707e-02 -3.80753056e-03  2.12201044e-02
  4.28320599e-02  6.73552327e-02  8.41679798e-02  1.00221953e-01
  1.43838133e-01  1.49523885e-01  1.72395443e-01  1.78624095e-01
  1.89223860e-01  2.01019578e-01  2.15733710e-01  2.28852996e-01
  2.33411989e-01  2.41127397e-01  2.55320359e-01  2.61849366e-01
  2.74658919e-01  2.97896126e-01  3.10463934e-01  3.15801602e-01
  3.34393982e-01  3.59972302e-01  4.02036337e-01  4.11189982e-01
  4.34524986e-01  4.38224376e-01  4.50463984e-01  4.68853639e-01
  4.88233440e-01  5.06088739e-01  5.23966596e-01  5.51345493e-01
  5.61906546e-01  5.79623089e-01  6.28110284e-01  6.48958312e-01
  6.57286637e-01  6.68642527e-01  7.00229337e-01  7.20645083e-01
  7.73295170e-01  7.99123290e-01  8.91046540e-01  9.69051384e-01]
nelec by numeric integration = 146.000001207737
    CPU time for vxc     37.98 sec, wall time     15.79 sec
E1 = -4118.662886460901  Ecoul = 1905.9323462542704  Exc = -124.85003579161003
cycle= 1 E= -835.400996286192  delta_E= 6.19  |g|= 0.388  |ddm|=  9.3
    CPU time for cycle= 1     38.30 sec, wall time     15.85 sec
  HOMO = -0.0892781727213719  LUMO = 0.00952330475797631
  mo_energy =
[-1.01150660e+01 -1.01058845e+01 -1.00525763e+01 -1.00490865e+01
 -1.00376208e+01 -1.00226143e+01 -9.99724552e+00 -9.98972658e+00
 -9.98739267e+00 -9.98680042e+00 -9.98405227e+00 -9.98248050e+00
 -9.97559539e+00 -9.97462675e+00 -9.97290913e+00 -9.96726626e+00
 -9.95282623e+00 -9.94623639e+00 -9.93796293e+00 -9.92852139e+00
 -9.86941485e+00 -9.84815356e+00 -8.50907798e-01 -8.28896211e-01
 -7.88215074e-01 -7.67476973e-01 -7.45318582e-01 -7.30795209e-01
 -7.29617713e-01 -6.92123856e-01 -6.83065791e-01 -6.68423833e-01
 -6.28307979e-01 -6.12703724e-01 -5.95541453e-01 -5.89814037e-01
 -5.72367682e-01 -5.43268912e-01 -5.19906094e-01 -5.03375320e-01
 -4.88695251e-01 -4.81498797e-01 -4.77444703e-01 -4.57520470e-01
 -4.49767720e-01 -4.31602850e-01 -4.09172504e-01 -4.01662216e-01
 -3.94133265e-01 -3.91846188e-01 -3.75466454e-01 -3.64206155e-01
 -3.57775903e-01 -3.53963652e-01 -3.39953221e-01 -3.21705860e-01
 -3.19148766e-01 -3.13539989e-01 -2.92599598e-01 -2.88514105e-01
 -2.78093587e-01 -2.68442852e-01 -2.66262004e-01 -2.46941799e-01
 -2.35894196e-01 -2.21455682e-01 -2.09562437e-01 -2.00696641e-01
 -1.80231948e-01 -1.68106566e-01 -1.59951499e-01 -1.21327574e-01
 -8.92781727e-02  9.52330476e-03  2.95686302e-02  6.33243403e-02
  7.95314135e-02  1.15580244e-01  1.65552754e-01  1.77569567e-01
  1.94250547e-01  2.37731597e-01  2.56223321e-01  2.65793811e-01
  2.90405935e-01  2.94824646e-01  3.09413123e-01  3.15324670e-01
  3.38294516e-01  3.45407704e-01  3.78689493e-01  3.84040401e-01
  3.86555418e-01  3.98458795e-01  4.04608485e-01  4.18876587e-01
  4.32174393e-01  4.43358017e-01  4.45716449e-01  4.49959677e-01
  4.74151225e-01  4.99849262e-01  5.20417886e-01  5.29105223e-01
  5.57224177e-01  5.94151315e-01  6.04622280e-01  6.19016888e-01
  6.39590412e-01  6.57405732e-01  6.62561756e-01  7.01714216e-01
  7.13489939e-01  7.84225467e-01  7.98526236e-01  8.02455164e-01
  8.12426323e-01  8.27500710e-01  8.60773020e-01  9.16154925e-01
  9.24264323e-01  1.04006774e+00  1.10528819e+00  1.20249999e+00]
nelec by numeric integration = 146.0000011401834
    CPU time for vxc     38.11 sec, wall time     15.85 sec
E1 = -4113.176190245325  Ecoul = 1900.800762837493  Exc = -124.77468247589195
cycle= 2 E= -834.970530171676  delta_E= 0.43  |g|= 1.11  |ddm|= 2.21
    CPU time for cycle= 2     38.64 sec, wall time     15.94 sec
  HOMO = -0.0935059381560555  LUMO = -0.00441371532912058
  mo_energy =
[-1.00309487e+01 -1.00258646e+01 -1.00199447e+01 -1.00146607e+01
 -1.00094445e+01 -1.00082183e+01 -1.00060813e+01 -1.00058029e+01
 -1.00031707e+01 -1.00030870e+01 -1.00021737e+01 -9.99564149e+00
 -9.99480067e+00 -9.99021270e+00 -9.98935513e+00 -9.98527252e+00
 -9.98477972e+00 -9.98291188e+00 -9.98215533e+00 -9.98130898e+00
 -9.96251442e+00 -9.96115431e+00 -8.82054099e-01 -8.27385905e-01
 -8.05393807e-01 -7.62771289e-01 -7.49363458e-01 -7.35102638e-01
 -7.20144449e-01 -6.97444802e-01 -6.87767769e-01 -6.60760460e-01
 -6.41796150e-01 -6.20000204e-01 -6.09662791e-01 -6.00828205e-01
 -5.82207891e-01 -5.48681240e-01 -5.27933752e-01 -5.10072091e-01
 -4.92667184e-01 -4.83722841e-01 -4.74959871e-01 -4.58380005e-01
 -4.44418689e-01 -4.35175587e-01 -4.17682265e-01 -4.08131847e-01
 -3.97655281e-01 -3.90870104e-01 -3.84129816e-01 -3.79013179e-01
 -3.62053899e-01 -3.57585194e-01 -3.45000465e-01 -3.36443154e-01
 -3.32210450e-01 -3.19286575e-01 -3.07290520e-01 -3.03118674e-01
 -2.97623398e-01 -2.78241125e-01 -2.65728490e-01 -2.55481341e-01
 -2.44733751e-01 -2.27730854e-01 -2.23125421e-01 -2.04336940e-01
 -1.86983341e-01 -1.73266908e-01 -1.67987974e-01 -1.20954206e-01
 -9.35059382e-02 -4.41371533e-03  1.52444866e-02  6.11221283e-02
  7.97622361e-02  1.11832558e-01  1.51786406e-01  1.68528388e-01
  1.87593240e-01  2.17013576e-01  2.36459311e-01  2.56598329e-01
  2.98758633e-01  3.02630058e-01  3.05647499e-01  3.16160149e-01
  3.39261175e-01  3.55811949e-01  3.65630032e-01  3.81601561e-01
  3.89417049e-01  4.01095877e-01  4.04587460e-01  4.09655037e-01
  4.19398204e-01  4.32974749e-01  4.49035383e-01  4.58654180e-01
  4.79277572e-01  5.00150894e-01  5.31258856e-01  5.47470077e-01
  5.68168832e-01  5.86805364e-01  6.06061112e-01  6.18205601e-01
  6.30046443e-01  6.56531299e-01  6.63767774e-01  6.91462452e-01
  7.08226586e-01  7.37517668e-01  7.84135195e-01  7.87366371e-01
  8.10759206e-01  8.16873200e-01  8.36909124e-01  8.47795934e-01
  9.16045721e-01  9.78335936e-01  1.06643887e+00  1.15610194e+00]
nelec by numeric integration = 146.000001158316
    CPU time for vxc     38.25 sec, wall time     15.89 sec
E1 = -4114.197721368539  Ecoul = 1901.3128025203243  Exc = -124.72613741093112
cycle= 3 E= -835.431476547098  delta_E= -0.461  |g|= 0.28  |ddm|= 1.98
    CPU time for cycle= 3     38.67 sec, wall time     15.96 sec
  HOMO = -0.101201203299465  LUMO = -0.0156599830059759
  mo_energy =
[-1.00453827e+01 -1.00409808e+01 -1.00385468e+01 -1.00364854e+01
 -1.00342397e+01 -1.00214319e+01 -1.00200635e+01 -1.00182587e+01
 -1.00168822e+01 -1.00158551e+01 -1.00098155e+01 -1.00094363e+01
 -1.00087379e+01 -1.00068498e+01 -1.00064716e+01 -1.00052316e+01
 -1.00045663e+01 -1.00032668e+01 -1.00021908e+01 -9.99488076e+00
 -9.99150783e+00 -9.97251565e+00 -9.08872555e-01 -8.38642814e-01
 -8.24871960e-01 -7.68669085e-01 -7.59607980e-01 -7.44121358e-01
 -7.35635530e-01 -7.11061310e-01 -6.93791990e-01 -6.63581126e-01
 -6.47931640e-01 -6.35496570e-01 -6.19534182e-01 -6.02722887e-01
 -5.94481165e-01 -5.63799848e-01 -5.41374966e-01 -5.16630448e-01
 -4.94013351e-01 -4.92680737e-01 -4.81805639e-01 -4.67615759e-01
 -4.58357261e-01 -4.47722114e-01 -4.30575814e-01 -4.19545308e-01
 -4.07907592e-01 -4.06436489e-01 -3.96272575e-01 -3.86668691e-01
 -3.67173665e-01 -3.63857164e-01 -3.57928215e-01 -3.44292011e-01
 -3.36593545e-01 -3.30405409e-01 -3.17764539e-01 -3.16930882e-01
 -3.13661846e-01 -2.85186131e-01 -2.70286980e-01 -2.59633942e-01
 -2.54755504e-01 -2.38308352e-01 -2.35659119e-01 -2.21686312e-01
 -2.00629942e-01 -1.89782754e-01 -1.74002609e-01 -1.30980964e-01
 -1.01201203e-01 -1.56599830e-02  5.82126866e-03  5.31702843e-02
  6.78913387e-02  9.69093122e-02  1.38404226e-01  1.59125148e-01
  1.79979510e-01  2.09055715e-01  2.26496701e-01  2.43674593e-01
  2.86009711e-01  2.89376201e-01  3.09046831e-01  3.10106478e-01
  3.28939173e-01  3.42778993e-01  3.58840746e-01  3.70481959e-01
  3.77222390e-01  3.84915795e-01  3.91367727e-01  4.04447751e-01
  4.11914099e-01  4.24238863e-01  4.46179384e-01  4.50721817e-01
  4.71016941e-01  4.90914745e-01  5.36446802e-01  5.38447248e-01
  5.53707275e-01  5.73487810e-01  5.90150794e-01  6.04711398e-01
  6.17009980e-01  6.45391023e-01  6.57116574e-01  6.75493696e-01
  6.95529047e-01  7.19992111e-01  7.72907358e-01  7.82259722e-01
  7.97314861e-01  8.04286339e-01  8.29451354e-01  8.57697641e-01
  9.06135345e-01  9.55197112e-01  1.04023260e+00  1.12640795e+00]
nelec by numeric integration = 146.00000118600897
    CPU time for vxc     37.97 sec, wall time     15.75 sec
E1 = -4115.71011291672  Ecoul = 1902.8203036970926  Exc = -124.74452924912575
cycle= 4 E= -835.454758756705  delta_E= -0.0233  |g|= 0.143  |ddm|= 0.603
    CPU time for cycle= 4     38.42 sec, wall time     15.82 sec
  HOMO = -0.106428181461602  LUMO = -0.0188044822438889
  mo_energy =
[-1.00415485e+01 -1.00392759e+01 -1.00363974e+01 -1.00357813e+01
 -1.00313226e+01 -1.00309339e+01 -1.00239511e+01 -1.00190421e+01
 -1.00189798e+01 -1.00177193e+01 -1.00156433e+01 -1.00113869e+01
 -1.00112706e+01 -1.00109254e+01 -1.00104340e+01 -1.00092718e+01
 -1.00089747e+01 -1.00080835e+01 -1.00068001e+01 -1.00057160e+01
 -1.00010842e+01 -9.99958012e+00 -9.05332167e-01 -8.41093890e-01
 -8.24588123e-01 -7.74426623e-01 -7.60413691e-01 -7.45566694e-01
 -7.37711187e-01 -7.14530124e-01 -6.95256897e-01 -6.65500453e-01
 -6.51238013e-01 -6.36189986e-01 -6.22388160e-01 -6.06578623e-01
 -5.95287905e-01 -5.63736820e-01 -5.42505367e-01 -5.18669503e-01
 -4.96416331e-01 -4.92523628e-01 -4.84701307e-01 -4.67519099e-01
 -4.60060655e-01 -4.51167805e-01 -4.30623582e-01 -4.21600294e-01
 -4.09493875e-01 -4.05457204e-01 -3.98969672e-01 -3.88901332e-01
 -3.71749076e-01 -3.66209133e-01 -3.59498934e-01 -3.48353296e-01
 -3.41298195e-01 -3.31579385e-01 -3.19360085e-01 -3.16185326e-01
 -3.13152235e-01 -2.88797101e-01 -2.75873355e-01 -2.64640334e-01
 -2.55911653e-01 -2.40555656e-01 -2.36133420e-01 -2.23814052e-01
 -2.04864671e-01 -1.92966603e-01 -1.77813921e-01 -1.34017233e-01
 -1.06428181e-01 -1.88044822e-02  3.23830815e-03  4.99847332e-02
  6.33416038e-02  9.45929122e-02  1.36614412e-01  1.56188169e-01
  1.75412104e-01  2.09312831e-01  2.25204292e-01  2.42113165e-01
  2.83692026e-01  2.86111382e-01  3.05585606e-01  3.06656854e-01
  3.27358340e-01  3.43404923e-01  3.52096005e-01  3.69182284e-01
  3.76828393e-01  3.84158077e-01  3.89590801e-01  3.98386118e-01
  4.11418775e-01  4.22744070e-01  4.43095643e-01  4.45091771e-01
  4.65996778e-01  4.88119930e-01  5.30223837e-01  5.36710001e-01
  5.55511962e-01  5.72184310e-01  5.88958889e-01  6.01683265e-01
  6.15362750e-01  6.46002396e-01  6.52656978e-01  6.77050974e-01
  6.91362617e-01  7.23403021e-01  7.71981115e-01  7.78914249e-01
  7.97823817e-01  8.00656330e-01  8.26447832e-01  8.49494945e-01
  9.03300319e-01  9.57167363e-01  1.04248525e+00  1.13047909e+00]
nelec by numeric integration = 146.00000118483084
    CPU time for vxc     38.17 sec, wall time     15.90 sec
E1 = -4115.576833375044  Ecoul = 1902.6842195956401  Exc = -124.74812989487637
cycle= 5 E= -835.461163962232  delta_E= -0.00641  |g|= 0.0528  |ddm|= 0.266
    CPU time for cycle= 5     38.89 sec, wall time     16.01 sec
  HOMO = -0.106145638497418  LUMO = -0.0173783434405306
  mo_energy =
[-1.00424144e+01 -1.00377614e+01 -1.00324108e+01 -1.00319105e+01
 -1.00309946e+01 -1.00301438e+01 -1.00174359e+01 -1.00166352e+01
 -1.00151507e+01 -1.00151147e+01 -1.00134937e+01 -1.00133782e+01
 -1.00133180e+01 -1.00131681e+01 -1.00120759e+01 -1.00116212e+01
 -1.00091446e+01 -1.00076226e+01 -1.00048264e+01 -1.00044074e+01
 -9.99624279e+00 -9.99461410e+00 -9.03488944e-01 -8.39878993e-01
 -8.23288164e-01 -7.72475394e-01 -7.61032000e-01 -7.45641011e-01
 -7.35654683e-01 -7.11059660e-01 -6.95934692e-01 -6.64513418e-01
 -6.50304079e-01 -6.35104388e-01 -6.21002935e-01 -6.06536971e-01
 -5.94965066e-01 -5.62687129e-01 -5.40768494e-01 -5.17689848e-01
 -4.95619439e-01 -4.92945208e-01 -4.83031637e-01 -4.67764041e-01
 -4.57930734e-01 -4.48477210e-01 -4.29849517e-01 -4.20371020e-01
 -4.08167136e-01 -4.04179370e-01 -3.98068980e-01 -3.88480504e-01
 -3.70079252e-01 -3.66285176e-01 -3.59031670e-01 -3.47462605e-01
 -3.41581268e-01 -3.30479575e-01 -3.18512157e-01 -3.15894977e-01
 -3.13239976e-01 -2.87296271e-01 -2.74545738e-01 -2.63865815e-01
 -2.56641583e-01 -2.40185702e-01 -2.35379083e-01 -2.21609145e-01
 -2.02746944e-01 -1.90603050e-01 -1.78321342e-01 -1.33852615e-01
 -1.06145638e-01 -1.73783434e-02  3.65559573e-03  5.07136936e-02
  6.46897957e-02  9.67728665e-02  1.37671628e-01  1.56414761e-01
  1.76332701e-01  2.08737378e-01  2.25564711e-01  2.42842791e-01
  2.85186320e-01  2.88426621e-01  3.05946416e-01  3.07019287e-01
  3.28422498e-01  3.45166674e-01  3.52341640e-01  3.69738640e-01
  3.77716994e-01  3.85637197e-01  3.92513866e-01  3.99845331e-01
  4.11103778e-01  4.23072614e-01  4.44752911e-01  4.45512720e-01
  4.67990936e-01  4.89806056e-01  5.30322722e-01  5.37283803e-01
  5.55420765e-01  5.73463395e-01  5.91479215e-01  6.03678216e-01
  6.16271802e-01  6.45774069e-01  6.55186810e-01  6.76664568e-01
  6.94439540e-01  7.22272647e-01  7.72636873e-01  7.78271514e-01
  7.99151459e-01  8.01950323e-01  8.26687919e-01  8.50626314e-01
  9.03939103e-01  9.58860943e-01  1.04454783e+00  1.13266544e+00]
nelec by numeric integration = 146.00000117683152
    CPU time for vxc     37.98 sec, wall time     15.75 sec
E1 = -4115.536350865736  Ecoul = 1902.6411563762697  Exc = -124.74635232566354
cycle= 6 E= -835.461967103081  delta_E= -0.000803  |g|= 0.0239  |ddm|= 0.106
    CPU time for cycle= 6     38.53 sec, wall time     15.83 sec
  HOMO = -0.105736898277564  LUMO = -0.0166961546855713
  mo_energy =
[-1.00404116e+01 -1.00369552e+01 -1.00332440e+01 -1.00320066e+01
 -1.00303439e+01 -1.00288334e+01 -1.00175327e+01 -1.00148318e+01
 -1.00143259e+01 -1.00142222e+01 -1.00127863e+01 -1.00125505e+01
 -1.00118109e+01 -1.00111367e+01 -1.00109137e+01 -1.00101584e+01
 -1.00067456e+01 -1.00051096e+01 -1.00036209e+01 -1.00024738e+01
 -1.00004548e+01 -9.99588383e+00 -9.03132335e-01 -8.39268598e-01
 -8.22793720e-01 -7.71856306e-01 -7.60437743e-01 -7.44736650e-01
 -7.35512413e-01 -7.11465215e-01 -6.94992555e-01 -6.64067481e-01
 -6.49890054e-01 -6.34758659e-01 -6.20576585e-01 -6.05738573e-01
 -5.94215899e-01 -5.62260882e-01 -5.40681884e-01 -5.17129749e-01
 -4.95444097e-01 -4.92459894e-01 -4.82701416e-01 -4.67248600e-01
 -4.57982712e-01 -4.48385648e-01 -4.29727438e-01 -4.19965542e-01
 -4.07933054e-01 -4.03714725e-01 -3.97499767e-01 -3.87750225e-01
 -3.69879743e-01 -3.65584714e-01 -3.58593269e-01 -3.46814055e-01
 -3.40291196e-01 -3.30207206e-01 -3.18009923e-01 -3.15466347e-01
 -3.12826712e-01 -2.87103276e-01 -2.73880591e-01 -2.63165984e-01
 -2.56055555e-01 -2.39220353e-01 -2.35114295e-01 -2.21687735e-01
 -2.02486252e-01 -1.90625220e-01 -1.77193948e-01 -1.33363433e-01
 -1.05736898e-01 -1.66961547e-02  4.43258195e-03  5.14847371e-02
  6.54706777e-02  9.68032695e-02  1.38383705e-01  1.57064095e-01
  1.76873775e-01  2.09690120e-01  2.26137169e-01  2.43507402e-01
  2.85578789e-01  2.88531738e-01  3.06560485e-01  3.07355044e-01
  3.28644660e-01  3.45404501e-01  3.53534714e-01  3.70240238e-01
  3.78049561e-01  3.85938120e-01  3.91762535e-01  4.00592242e-01
  4.11591162e-01  4.23626428e-01  4.45320815e-01  4.46177922e-01
  4.68568544e-01  4.90029152e-01  5.31382468e-01  5.38104105e-01
  5.55827311e-01  5.73983936e-01  5.91274373e-01  6.03873399e-01
  6.16840792e-01  6.46775542e-01  6.55314075e-01  6.77233720e-01
  6.94358508e-01  7.23603376e-01  7.73517983e-01  7.78827397e-01
  7.99399897e-01  8.02424666e-01  8.27150251e-01  8.50873921e-01
  9.04259405e-01  9.59262441e-01  1.04474041e+00  1.13283356e+00]
nelec by numeric integration = 146.00000118123606
    CPU time for vxc     38.48 sec, wall time     15.95 sec
E1 = -4115.501380257371  Ecoul = 1902.6045425693717  Exc = -124.74489708267268
cycle= 7 E= -835.462155058624  delta_E= -0.000188  |g|= 0.00812  |ddm|= 0.0431
    CPU time for cycle= 7     38.91 sec, wall time     16.01 sec
  HOMO = -0.105727631102861  LUMO = -0.0165964543845111
  mo_energy =
[-1.00397818e+01 -1.00376542e+01 -1.00337667e+01 -1.00324942e+01
 -1.00307027e+01 -1.00283384e+01 -1.00154306e+01 -1.00144777e+01
 -1.00141010e+01 -1.00135494e+01 -1.00132905e+01 -1.00125734e+01
 -1.00120628e+01 -1.00113797e+01 -1.00108097e+01 -1.00098261e+01
 -1.00070701e+01 -1.00049962e+01 -1.00045842e+01 -1.00032418e+01
 -1.00003077e+01 -9.99534205e+00 -9.03558345e-01 -8.39046154e-01
 -8.22974056e-01 -7.71838326e-01 -7.60269736e-01 -7.44648412e-01
 -7.35585697e-01 -7.11462481e-01 -6.94827576e-01 -6.64050167e-01
 -6.49900829e-01 -6.34899759e-01 -6.20523749e-01 -6.05574728e-01
 -5.94220941e-01 -5.62341012e-01 -5.40726929e-01 -5.17245862e-01
 -4.95342712e-01 -4.92346747e-01 -4.82784778e-01 -4.67158495e-01
 -4.57977860e-01 -4.48437418e-01 -4.29725734e-01 -4.19924465e-01
 -4.07922466e-01 -4.03956476e-01 -3.97537066e-01 -3.87839244e-01
 -3.69838898e-01 -3.65479750e-01 -3.58522831e-01 -3.46596149e-01
 -3.40215829e-01 -3.30175126e-01 -3.17977518e-01 -3.15670630e-01
 -3.12936604e-01 -2.87095241e-01 -2.73845191e-01 -2.63083019e-01
 -2.55871095e-01 -2.39299943e-01 -2.35214271e-01 -2.21713289e-01
 -2.02490794e-01 -1.90616174e-01 -1.77093963e-01 -1.33289939e-01
 -1.05727631e-01 -1.65964544e-02  4.55350536e-03  5.16045876e-02
  6.54461077e-02  9.68764000e-02  1.38179983e-01  1.57159685e-01
  1.76945359e-01  2.09494268e-01  2.26050789e-01  2.43455271e-01
  2.85613753e-01  2.88584429e-01  3.06677572e-01  3.07528951e-01
  3.28763153e-01  3.45203726e-01  3.53723520e-01  3.70347450e-01
  3.78100430e-01  3.85900091e-01  3.91777004e-01  4.00639629e-01
  4.11619604e-01  4.23594262e-01  4.45361961e-01  4.46426666e-01
  4.68566949e-01  4.90116009e-01  5.31426323e-01  5.37971823e-01
  5.55876861e-01  5.73869720e-01  5.91209970e-01  6.03866132e-01
  6.16770386e-01  6.46531942e-01  6.55266343e-01  6.77239159e-01
  6.94281518e-01  7.23221091e-01  7.73445089e-01  7.79080838e-01
  7.99391713e-01  8.02614394e-01  8.27543888e-01  8.51043854e-01
  9.04848480e-01  9.58881313e-01  1.04441231e+00  1.13234128e+00]
nelec by numeric integration = 146.0000011804454
    CPU time for vxc     38.23 sec, wall time     15.79 sec
E1 = -4115.505660927572  Ecoul = 1902.6087970298072  Exc = -124.7448881715948
cycle= 8 E= -835.462172357311  delta_E= -1.73e-05  |g|= 0.00423  |ddm|= 0.0128
    CPU time for cycle= 8     38.91 sec, wall time     15.89 sec
  HOMO = -0.105737461607209  LUMO = -0.0165850437674487
  mo_energy =
[-1.00402217e+01 -1.00376858e+01 -1.00336538e+01 -1.00326177e+01
 -1.00306450e+01 -1.00286200e+01 -1.00156970e+01 -1.00146366e+01
 -1.00144867e+01 -1.00133580e+01 -1.00131901e+01 -1.00126808e+01
 -1.00117177e+01 -1.00114641e+01 -1.00106470e+01 -1.00095882e+01
 -1.00071344e+01 -1.00051344e+01 -1.00046380e+01 -1.00031857e+01
 -1.00000707e+01 -9.99545373e+00 -9.03581714e-01 -8.39211524e-01
 -8.23023921e-01 -7.71899327e-01 -7.60243105e-01 -7.44712136e-01
 -7.35569190e-01 -7.11489702e-01 -6.94873488e-01 -6.64065907e-01
 -6.49938735e-01 -6.34898339e-01 -6.20534781e-01 -6.05609785e-01
 -5.94270403e-01 -5.62379371e-01 -5.40770441e-01 -5.17265282e-01
 -4.95365359e-01 -4.92367516e-01 -4.82828220e-01 -4.67181344e-01
 -4.57988051e-01 -4.48443465e-01 -4.29709984e-01 -4.19999605e-01
 -4.07985277e-01 -4.03980786e-01 -3.97566526e-01 -3.87874969e-01
 -3.69852024e-01 -3.65444179e-01 -3.58511690e-01 -3.46719447e-01
 -3.40263317e-01 -3.30199383e-01 -3.17997446e-01 -3.15638687e-01
 -3.12914790e-01 -2.87107156e-01 -2.73894228e-01 -2.63144120e-01
 -2.55827050e-01 -2.39332632e-01 -2.35239119e-01 -2.21721342e-01
 -2.02480822e-01 -1.90630009e-01 -1.77117958e-01 -1.33302353e-01
 -1.05737462e-01 -1.65850438e-02  4.55927331e-03  5.15887857e-02
  6.54199372e-02  9.68041592e-02  1.38169552e-01  1.57148428e-01
  1.76944585e-01  2.09535009e-01  2.26070433e-01  2.43432075e-01
  2.85578246e-01  2.88527755e-01  3.06606377e-01  3.07572576e-01
  3.28695347e-01  3.45193188e-01  3.53678542e-01  3.70285270e-01
  3.78155715e-01  3.85924877e-01  3.91826228e-01  4.00609376e-01
  4.11651164e-01  4.23598267e-01  4.45357016e-01  4.46320386e-01
  4.68549346e-01  4.90023801e-01  5.31461309e-01  5.37949260e-01
  5.55933986e-01  5.73826638e-01  5.91182739e-01  6.03837283e-01
  6.16755558e-01  6.46490175e-01  6.55227340e-01  6.77293648e-01
  6.94262850e-01  7.23190096e-01  7.73351139e-01  7.79120978e-01
  7.99332935e-01  8.02497569e-01  8.27407731e-01  8.51007797e-01
  9.04603985e-01  9.58821420e-01  1.04438487e+00  1.13233712e+00]
nelec by numeric integration = 146.00000118070062
    CPU time for vxc     38.47 sec, wall time     15.99 sec
E1 = -4115.51092455879  Ecoul = 1902.614125974542  Exc = -124.74495802546726
cycle= 9 E= -835.462176897667  delta_E= -4.54e-06  |g|= 0.00229  |ddm|= 0.00392
    CPU time for cycle= 9     39.19 sec, wall time     16.10 sec
  HOMO = -0.105762750112806  LUMO = -0.0165922431973021
  mo_energy =
[-1.00401854e+01 -1.00376596e+01 -1.00336238e+01 -1.00326048e+01
 -1.00306153e+01 -1.00285916e+01 -1.00157799e+01 -1.00146332e+01
 -1.00144022e+01 -1.00135214e+01 -1.00131784e+01 -1.00124961e+01
 -1.00118749e+01 -1.00115676e+01 -1.00106684e+01 -1.00095687e+01
 -1.00070918e+01 -1.00050627e+01 -1.00045809e+01 -1.00032378e+01
 -1.00001205e+01 -9.99569415e+00 -9.03576558e-01 -8.39194071e-01
 -8.23017684e-01 -7.71893007e-01 -7.60283852e-01 -7.44721621e-01
 -7.35558335e-01 -7.11477440e-01 -6.94888003e-01 -6.64084932e-01
 -6.49987306e-01 -6.34898378e-01 -6.20515087e-01 -6.05625705e-01
 -5.94250201e-01 -5.62374400e-01 -5.40758446e-01 -5.17278719e-01
 -4.95396193e-01 -4.92384165e-01 -4.82823701e-01 -4.67195634e-01
 -4.57962269e-01 -4.48406287e-01 -4.29718415e-01 -4.19987089e-01
 -4.07971771e-01 -4.03975679e-01 -3.97566328e-01 -3.87879757e-01
 -3.69868084e-01 -3.65484670e-01 -3.58520970e-01 -3.46715192e-01
 -3.40280925e-01 -3.30206204e-01 -3.18001862e-01 -3.15629580e-01
 -3.12910857e-01 -2.87121976e-01 -2.73893637e-01 -2.63145411e-01
 -2.55873999e-01 -2.39334128e-01 -2.35207958e-01 -2.21702251e-01
 -2.02473513e-01 -1.90616663e-01 -1.77136077e-01 -1.33320092e-01
 -1.05762750e-01 -1.65922432e-02  4.54119174e-03  5.15803444e-02
  6.54290030e-02  9.68196253e-02  1.38177726e-01  1.57119371e-01
  1.76921744e-01  2.09545736e-01  2.26061512e-01  2.43433348e-01
  2.85596760e-01  2.88551294e-01  3.06612771e-01  3.07531117e-01
  3.28711457e-01  3.45202466e-01  3.53652487e-01  3.70294923e-01
  3.78135990e-01  3.85922189e-01  3.91835678e-01  4.00603704e-01
  4.11630316e-01  4.23585064e-01  4.45370461e-01  4.46311249e-01
  4.68568425e-01  4.90053119e-01  5.31419105e-01  5.37954336e-01
  5.55946669e-01  5.73834029e-01  5.91190701e-01  6.03851721e-01
  6.16766767e-01  6.46484158e-01  6.55239086e-01  6.77301531e-01
  6.94276636e-01  7.23190168e-01  7.73364749e-01  7.79044712e-01
  7.99337057e-01  8.02503133e-01  8.27402215e-01  8.50897798e-01
  9.04620632e-01  9.58796566e-01  1.04438831e+00  1.13234704e+00]
nelec by numeric integration = 146.00000118076514
    CPU time for vxc     38.28 sec, wall time     15.85 sec
E1 = -4115.510071809402  Ecoul = 1902.6133214353476  Exc = -124.74500780600417
cycle= 10 E= -835.46217846801  delta_E= -1.57e-06  |g|= 0.000991  |ddm|= 0.00206
    CPU time for cycle= 10     38.61 sec, wall time     15.91 sec
  HOMO = -0.105783400556883  LUMO = -0.0166035497188489
  mo_energy =
[-1.00401103e+01 -1.00376898e+01 -1.00336666e+01 -1.00326103e+01
 -1.00306348e+01 -1.00285286e+01 -1.00157760e+01 -1.00145490e+01
 -1.00144085e+01 -1.00135123e+01 -1.00132258e+01 -1.00125133e+01
 -1.00118045e+01 -1.00115731e+01 -1.00106302e+01 -1.00094904e+01
 -1.00071125e+01 -1.00051091e+01 -1.00046900e+01 -1.00032071e+01
 -1.00000725e+01 -9.99590533e+00 -9.03599744e-01 -8.39179892e-01
 -8.23031054e-01 -7.71877972e-01 -7.60279583e-01 -7.44713252e-01
 -7.35570573e-01 -7.11472765e-01 -6.94882190e-01 -6.64107021e-01
 -6.50027893e-01 -6.34910272e-01 -6.20496727e-01 -6.05603788e-01
 -5.94247141e-01 -5.62380171e-01 -5.40760907e-01 -5.17277871e-01
 -4.95412150e-01 -4.92381008e-01 -4.82826366e-01 -4.67190919e-01
 -4.57966198e-01 -4.48406941e-01 -4.29716349e-01 -4.19986153e-01
 -4.07965481e-01 -4.03990254e-01 -3.97557948e-01 -3.87879685e-01
 -3.69854208e-01 -3.65487821e-01 -3.58522919e-01 -3.46701872e-01
 -3.40265497e-01 -3.30203850e-01 -3.17995868e-01 -3.15654731e-01
 -3.12931492e-01 -2.87144648e-01 -2.73877223e-01 -2.63130548e-01
 -2.55872447e-01 -2.39331835e-01 -2.35228413e-01 -2.21707930e-01
 -2.02479534e-01 -1.90622554e-01 -1.77129305e-01 -1.33327632e-01
 -1.05783401e-01 -1.66035497e-02  4.53433581e-03  5.15819634e-02
  6.54297635e-02  9.68258518e-02  1.38172944e-01  1.57117521e-01
  1.76928523e-01  2.09498203e-01  2.26031758e-01  2.43419501e-01
  2.85592199e-01  2.88550615e-01  3.06640739e-01  3.07516996e-01
  3.28712945e-01  3.45192327e-01  3.53682161e-01  3.70293832e-01
  3.78127681e-01  3.85912279e-01  3.91839764e-01  4.00622300e-01
  4.11626512e-01  4.23580733e-01  4.45374615e-01  4.46341233e-01
  4.68576875e-01  4.90058577e-01  5.31447924e-01  5.37962408e-01
  5.55967721e-01  5.73831297e-01  5.91192837e-01  6.03855440e-01
  6.16764906e-01  6.46467083e-01  6.55251118e-01  6.77319051e-01
  6.94284744e-01  7.23161075e-01  7.73361030e-01  7.79028157e-01
  7.99330796e-01  8.02517545e-01  8.27419848e-01  8.50825476e-01
  9.04645036e-01  9.58766211e-01  1.04437198e+00  1.13231906e+00]
nelec by numeric integration = 146.00000118074502
    CPU time for vxc     37.97 sec, wall time     15.81 sec
E1 = -4115.510287780598  Ecoul = 1902.6135463896537  Exc = -124.74501709302432
cycle= 11 E= -835.462178771921  delta_E= -3.04e-07  |g|= 0.000398  |ddm|= 0.00178
    CPU time for cycle= 11     38.28 sec, wall time     15.86 sec
  HOMO = -0.105761692698596  LUMO = -0.0165831826555426
  mo_energy =
[-1.00401530e+01 -1.00376528e+01 -1.00336167e+01 -1.00326048e+01
 -1.00306122e+01 -1.00285778e+01 -1.00157464e+01 -1.00146054e+01
 -1.00143912e+01 -1.00135048e+01 -1.00131868e+01 -1.00124482e+01
 -1.00118351e+01 -1.00115769e+01 -1.00106196e+01 -1.00094680e+01
 -1.00070949e+01 -1.00050744e+01 -1.00046115e+01 -1.00031951e+01
 -1.00000592e+01 -9.99583487e+00 -9.03574875e-01 -8.39180723e-01
 -8.23012524e-01 -7.71882092e-01 -7.60272751e-01 -7.44707618e-01
 -7.35548166e-01 -7.11463681e-01 -6.94875773e-01 -6.64088278e-01
 -6.50008116e-01 -6.34892832e-01 -6.20490049e-01 -6.05608724e-01
 -5.94235145e-01 -5.62367501e-01 -5.40749378e-01 -5.17273861e-01
 -4.95403017e-01 -4.92375873e-01 -4.82819263e-01 -4.67186872e-01
 -4.57947208e-01 -4.48387565e-01 -4.29707906e-01 -4.19977963e-01
 -4.07960660e-01 -4.03971768e-01 -3.97555522e-01 -3.87875890e-01
 -3.69856855e-01 -3.65478974e-01 -3.58508836e-01 -3.46703432e-01
 -3.40266646e-01 -3.30195701e-01 -3.17990442e-01 -3.15632801e-01
 -3.12913807e-01 -2.87127704e-01 -2.73882490e-01 -2.63135420e-01
 -2.55864067e-01 -2.39322629e-01 -2.35211134e-01 -2.21688685e-01
 -2.02460818e-01 -1.90603208e-01 -1.77124084e-01 -1.33311033e-01
 -1.05761693e-01 -1.65831827e-02  4.55051382e-03  5.15940047e-02
  6.54417800e-02  9.68330128e-02  1.38187100e-01  1.57124397e-01
  1.76930688e-01  2.09526995e-01  2.26053754e-01  2.43435388e-01
  2.85607391e-01  2.88564659e-01  3.06623193e-01  3.07533915e-01
  3.28720936e-01  3.45210016e-01  3.53671444e-01  3.70303731e-01
  3.78147347e-01  3.85931228e-01  3.91855303e-01  4.00619046e-01
  4.11635038e-01  4.23590455e-01  4.45388651e-01  4.46327313e-01
  4.68587601e-01  4.90065568e-01  5.31436544e-01  5.37968403e-01
  5.55978319e-01  5.73841904e-01  5.91204088e-01  6.03867685e-01
  6.16778544e-01  6.46477803e-01  6.55249978e-01  6.77329500e-01
  6.94291182e-01  7.23182233e-01  7.73371669e-01  7.79040538e-01
  7.99347237e-01  8.02517016e-01  8.27417672e-01  8.50849568e-01
  9.04639416e-01  9.58785666e-01  1.04438949e+00  1.13235026e+00]
nelec by numeric integration = 146.00000118074323
    CPU time for vxc     37.58 sec, wall time     15.65 sec
E1 = -4115.509259729946  Ecoul = 1902.6124963267362  Exc = -124.74499513324272
cycle= 12 E= -835.462178824405  delta_E= -5.25e-08  |g|= 9.65e-05  |ddm|= 0.000592
    CPU time for cycle= 12     38.38 sec, wall time     15.78 sec
  HOMO = -0.105760054354547  LUMO = -0.016583446442919
  mo_energy =
[-1.00401556e+01 -1.00376525e+01 -1.00336149e+01 -1.00325952e+01
 -1.00305972e+01 -1.00285678e+01 -1.00157567e+01 -1.00146001e+01
 -1.00143806e+01 -1.00134968e+01 -1.00131725e+01 -1.00124649e+01
 -1.00118330e+01 -1.00115656e+01 -1.00106116e+01 -1.00094659e+01
 -1.00070902e+01 -1.00050621e+01 -1.00046177e+01 -1.00032121e+01
 -1.00000691e+01 -9.99582995e+00 -9.03570999e-01 -8.39178272e-01
 -8.23009481e-01 -7.71876944e-01 -7.60267927e-01 -7.44708849e-01
 -7.35547361e-01 -7.11462311e-01 -6.94876316e-01 -6.64087173e-01
 -6.50005662e-01 -6.34890596e-01 -6.20489915e-01 -6.05608517e-01
 -5.94235896e-01 -5.62365477e-01 -5.40749122e-01 -5.17271869e-01
 -4.95400416e-01 -4.92374234e-01 -4.82817104e-01 -4.67184787e-01
 -4.57948636e-01 -4.48389533e-01 -4.29705501e-01 -4.19976501e-01
 -4.07959998e-01 -4.03969439e-01 -3.97553961e-01 -3.87874648e-01
 -3.69855600e-01 -3.65475531e-01 -3.58506825e-01 -3.46701144e-01
 -3.40266678e-01 -3.30194207e-01 -3.17987768e-01 -3.15630625e-01
 -3.12912312e-01 -2.87125578e-01 -2.73878693e-01 -2.63133172e-01
 -2.55859296e-01 -2.39323896e-01 -2.35209019e-01 -2.21687795e-01
 -2.02459580e-01 -1.90601686e-01 -1.77123427e-01 -1.33310090e-01
 -1.05760054e-01 -1.65834464e-02  4.55066087e-03  5.15945333e-02
  6.54418097e-02  9.68352430e-02  1.38185863e-01  1.57129291e-01
  1.76935455e-01  2.09528612e-01  2.26056984e-01  2.43438161e-01
  2.85608547e-01  2.88565428e-01  3.06624694e-01  3.07536266e-01
  3.28721181e-01  3.45212336e-01  3.53672490e-01  3.70305118e-01
  3.78149596e-01  3.85934042e-01  3.91853370e-01  4.00621840e-01
  4.11636447e-01  4.23590896e-01  4.45388543e-01  4.46328681e-01
  4.68587356e-01  4.90066491e-01  5.31436667e-01  5.37965488e-01
  5.55977390e-01  5.73842202e-01  5.91204926e-01  6.03866775e-01
  6.16778637e-01  6.46480441e-01  6.55253735e-01  6.77330381e-01
  6.94292725e-01  7.23184032e-01  7.73373222e-01  7.79045918e-01
  7.99348355e-01  8.02519622e-01  8.27418869e-01  8.50854509e-01
  9.04640553e-01  9.58790642e-01  1.04439789e+00  1.13235224e+00]
nelec by numeric integration = 146.00000118074686
    CPU time for vxc     38.54 sec, wall time     15.97 sec
E1 = -4115.509044070483  Ecoul = 1902.6122761419335  Exc = -124.74499061021399
cycle= 13 E= -835.462178826715  delta_E= -2.31e-09  |g|= 4.98e-05  |ddm|= 0.000172
    CPU time for cycle= 13     39.16 sec, wall time     16.08 sec
  HOMO = -0.105762329162796  LUMO = -0.0165858480051863
  mo_energy =
[-1.00401565e+01 -1.00376555e+01 -1.00336183e+01 -1.00326017e+01
 -1.00306050e+01 -1.00285731e+01 -1.00157560e+01 -1.00146018e+01
 -1.00143924e+01 -1.00135021e+01 -1.00131846e+01 -1.00124640e+01
 -1.00118387e+01 -1.00115704e+01 -1.00106179e+01 -1.00094721e+01
 -1.00070925e+01 -1.00050717e+01 -1.00046167e+01 -1.00032071e+01
 -1.00000698e+01 -9.99583312e+00 -9.03574508e-01 -8.39181903e-01
 -8.23012900e-01 -7.71881512e-01 -7.60271462e-01 -7.44709959e-01
 -7.35549694e-01 -7.11465476e-01 -6.94877936e-01 -6.64089258e-01
 -6.50007691e-01 -6.34893004e-01 -6.20492443e-01 -6.05610553e-01
 -5.94237494e-01 -5.62368233e-01 -5.40751103e-01 -5.17274233e-01
 -4.95402542e-01 -4.92376216e-01 -4.82820068e-01 -4.67186921e-01
 -4.57950233e-01 -4.48391036e-01 -4.29707897e-01 -4.19979313e-01
 -4.07962037e-01 -4.03972093e-01 -3.97556300e-01 -3.87876087e-01
 -3.69857886e-01 -3.65478527e-01 -3.58509781e-01 -3.46704378e-01
 -3.40268563e-01 -3.30196732e-01 -3.17990690e-01 -3.15632103e-01
 -3.12913339e-01 -2.87127878e-01 -2.73882291e-01 -2.63135855e-01
 -2.55862796e-01 -2.39324832e-01 -2.35210631e-01 -2.21690351e-01
 -2.02462448e-01 -1.90604892e-01 -1.77125657e-01 -1.33312481e-01
 -1.05762329e-01 -1.65858480e-02  4.54820115e-03  5.15918969e-02
  6.54395060e-02  9.68319017e-02  1.38184981e-01  1.57125599e-01
  1.76931445e-01  2.09528526e-01  2.26054770e-01  2.43435339e-01
  2.85605950e-01  2.88562581e-01  3.06623438e-01  3.07533570e-01
  3.28719361e-01  3.45209415e-01  3.53669848e-01  3.70302778e-01
  3.78146552e-01  3.85930814e-01  3.91851890e-01  4.00618283e-01
  4.11635037e-01  4.23589364e-01  4.45385858e-01  4.46325980e-01
  4.68584844e-01  4.90063589e-01  5.31434555e-01  5.37965827e-01
  5.55975662e-01  5.73840187e-01  5.91202271e-01  6.03865089e-01
  6.16777141e-01  6.46478953e-01  6.55249946e-01  6.77328046e-01
  6.94289623e-01  7.23182819e-01  7.73370499e-01  7.79042516e-01
  7.99345651e-01  8.02515822e-01  8.27415937e-01  8.50852173e-01
  9.04636932e-01  9.58787070e-01  1.04439258e+00  1.13234923e+00]
nelec by numeric integration = 146.00000118075207
    CPU time for vxc     38.36 sec, wall time     15.85 sec
E1 = -4115.509306505279  Ecoul = 1902.6125452153346  Exc = -124.74499724959948
cycle= 14 E= -835.462178827496  delta_E= -7.81e-10  |g|= 1.39e-05  |ddm|= 7.73e-05
    CPU time for cycle= 14     38.92 sec, wall time     15.94 sec
  HOMO = -0.105762074011873  LUMO = -0.0165855474754755
  mo_energy =
[-1.00401553e+01 -1.00376561e+01 -1.00336191e+01 -1.00326020e+01
 -1.00306061e+01 -1.00285717e+01 -1.00157562e+01 -1.00146015e+01
 -1.00143903e+01 -1.00135018e+01 -1.00131832e+01 -1.00124626e+01
 -1.00118356e+01 -1.00115714e+01 -1.00106182e+01 -1.00094720e+01
 -1.00070935e+01 -1.00050706e+01 -1.00046172e+01 -1.00032078e+01
 -1.00000692e+01 -9.99583135e+00 -9.03575012e-01 -8.39181299e-01
 -8.23012986e-01 -7.71880769e-01 -7.60271424e-01 -7.44709914e-01
 -7.35549728e-01 -7.11465008e-01 -6.94877655e-01 -6.64089045e-01
 -6.50007506e-01 -6.34893171e-01 -6.20492102e-01 -6.05609948e-01
 -5.94237379e-01 -5.62368158e-01 -5.40750966e-01 -5.17273999e-01
 -4.95402322e-01 -4.92376150e-01 -4.82819624e-01 -4.67186857e-01
 -4.57950122e-01 -4.48390926e-01 -4.29707933e-01 -4.19978935e-01
 -4.07961825e-01 -4.03972311e-01 -3.97556003e-01 -3.87876059e-01
 -3.69857341e-01 -3.65478314e-01 -3.58509617e-01 -3.46703772e-01
 -3.40268101e-01 -3.30196532e-01 -3.17990488e-01 -3.15632496e-01
 -3.12913627e-01 -2.87127700e-01 -2.73881644e-01 -2.63135289e-01
 -2.55862790e-01 -2.39324864e-01 -2.35210756e-01 -2.21690252e-01
 -2.02462214e-01 -1.90604638e-01 -1.77125220e-01 -1.33312156e-01
 -1.05762074e-01 -1.65855475e-02  4.54854716e-03  5.15922213e-02
  6.54398357e-02  9.68322588e-02  1.38184845e-01  1.57125834e-01
  1.76931934e-01  2.09528020e-01  2.26054615e-01  2.43435407e-01
  2.85606145e-01  2.88562909e-01  3.06623869e-01  3.07533778e-01
  3.28719602e-01  3.45209290e-01  3.53670678e-01  3.70302913e-01
  3.78146553e-01  3.85930766e-01  3.91852089e-01  4.00619021e-01
  4.11634951e-01  4.23589469e-01  4.45386283e-01  4.46326882e-01
  4.68585288e-01  4.90064123e-01  5.31435520e-01  5.37965619e-01
  5.55975647e-01  5.73840400e-01  5.91202483e-01  6.03865204e-01
  6.16776983e-01  6.46478651e-01  6.55250558e-01  6.77327989e-01
  6.94290096e-01  7.23182297e-01  7.73370712e-01  7.79042661e-01
  7.99345627e-01  8.02516515e-01  8.27416507e-01  8.50852579e-01
  9.04637842e-01  9.58786729e-01  1.04439208e+00  1.13234872e+00]
nelec by numeric integration = 146.00000118075002
    CPU time for vxc     38.32 sec, wall time     15.88 sec
E1 = -4115.50931013064  Ecoul = 1902.612548263629  Exc = -124.7449966726047
cycle= 15 E= -835.462178827568  delta_E= -7.19e-11  |g|= 3.19e-06  |ddm|= 2.12e-05
    CPU time for cycle= 15     38.72 sec, wall time     15.94 sec
  HOMO = -0.105762096504604  LUMO = -0.0165857121741448
  mo_energy =
[-1.00401555e+01 -1.00376559e+01 -1.00336188e+01 -1.00326012e+01
 -1.00306057e+01 -1.00285720e+01 -1.00157560e+01 -1.00146018e+01
 -1.00143899e+01 -1.00135018e+01 -1.00131830e+01 -1.00124640e+01
 -1.00118365e+01 -1.00115710e+01 -1.00106185e+01 -1.00094735e+01
 -1.00070931e+01 -1.00050705e+01 -1.00046182e+01 -1.00032074e+01
 -1.00000681e+01 -9.99583050e+00 -9.03574787e-01 -8.39181219e-01
 -8.23012846e-01 -7.71880780e-01 -7.60271395e-01 -7.44709840e-01
 -7.35549790e-01 -7.11464849e-01 -6.94877712e-01 -6.64089038e-01
 -6.50007273e-01 -6.34893203e-01 -6.20492286e-01 -6.05610106e-01
 -5.94237526e-01 -5.62368099e-01 -5.40750835e-01 -5.17273940e-01
 -4.95402173e-01 -4.92376156e-01 -4.82819598e-01 -4.67186867e-01
 -4.57950151e-01 -4.48391111e-01 -4.29707854e-01 -4.19978904e-01
 -4.07961705e-01 -4.03972202e-01 -3.97556028e-01 -3.87876009e-01
 -3.69857290e-01 -3.65478358e-01 -3.58509698e-01 -3.46703759e-01
 -3.40268187e-01 -3.30196490e-01 -3.17990505e-01 -3.15632498e-01
 -3.12913628e-01 -2.87127591e-01 -2.73881679e-01 -2.63135310e-01
 -2.55862751e-01 -2.39324811e-01 -2.35210717e-01 -2.21690249e-01
 -2.02462307e-01 -1.90604660e-01 -1.77125353e-01 -1.33312203e-01
 -1.05762097e-01 -1.65857122e-02  4.54844364e-03  5.15920936e-02
  6.54396948e-02  9.68323768e-02  1.38184941e-01  1.57125880e-01
  1.76931934e-01  2.09527838e-01  2.26054610e-01  2.43435389e-01
  2.85606114e-01  2.88562921e-01  3.06623815e-01  3.07533772e-01
  3.28719625e-01  3.45209398e-01  3.53670498e-01  3.70302935e-01
  3.78146534e-01  3.85930821e-01  3.91852150e-01  4.00618923e-01
  4.11634958e-01  4.23589510e-01  4.45386140e-01  4.46326780e-01
  4.68585101e-01  4.90064115e-01  5.31435303e-01  5.37965678e-01
  5.55975316e-01  5.73840468e-01  5.91202611e-01  6.03865263e-01
  6.16776996e-01  6.46478726e-01  6.55250623e-01  6.77327678e-01
  6.94290205e-01  7.23182254e-01  7.73370735e-01  7.79042766e-01
  7.99345752e-01  8.02516548e-01  8.27416551e-01  8.50852986e-01
  9.04637914e-01  9.58787109e-01  1.04439244e+00  1.13234896e+00]
nelec by numeric integration = 146.00000118074902
    CPU time for vxc     38.46 sec, wall time     15.95 sec
E1 = -4115.509302814501  Ecoul = 1902.6125408142684  Exc = -124.74499653934424
Extra cycle  E= -835.462178827529  delta_E= 3.87e-11  |g|= 1.03e-05  |ddm|= 1.88e-05
    CPU time for scf_cycle    666.76 sec, wall time    273.00 sec
    CPU time for SCF    666.76 sec, wall time    273.00 sec
converged SCF energy = -835.462178827529
nelec by numeric integration = 146.00000118074902
    CPU time for vxc     38.66 sec, wall time     16.04 sec
 ** Mulliken pop  **
pop of  0 C 1s            1.99044
pop of  0 C 2s            1.08142
pop of  0 C 2px           1.00628
pop of  0 C 2py           0.97142
pop of  0 C 2pz           0.96128
pop of  1 C 1s            1.99069
pop of  1 C 2s            1.14380
pop of  1 C 2px           0.97654
pop of  1 C 2py           0.94041
pop of  1 C 2pz           0.92913
pop of  2 C 1s            1.99133
pop of  2 C 2s            1.14998
pop of  2 C 2px           1.02440
pop of  2 C 2py           0.93587
pop of  2 C 2pz           1.02607
pop of  3 C 1s            1.99074
pop of  3 C 2s            1.10727
pop of  3 C 2px           1.01369
pop of  3 C 2py           0.96037
pop of  3 C 2pz           1.01468
pop of  4 C 1s            1.99078
pop of  4 C 2s            1.12011
pop of  4 C 2px           1.02052
pop of  4 C 2py           0.96390
pop of  4 C 2pz           1.02009
pop of  5 C 1s            1.99079
pop of  5 C 2s            1.16476
pop of  5 C 2px           1.00852
pop of  5 C 2py           0.93898
pop of  5 C 2pz           0.99622
pop of  6 C 1s            1.99113
pop of  6 C 2s            1.16351
pop of  6 C 2px           0.97517
pop of  6 C 2py           0.97657
pop of  6 C 2pz           0.94533
pop of  7 C 1s            1.99120
pop of  7 C 2s            1.21385
pop of  7 C 2px           0.97327
pop of  7 C 2py           0.96816
pop of  7 C 2pz           0.91847
pop of  8 C 1s            1.99111
pop of  8 C 2s            1.16230
pop of  8 C 2px           0.98023
pop of  8 C 2py           0.94832
pop of  8 C 2pz           0.92187
pop of  9 C 1s            1.99111
pop of  9 C 2s            1.18207
pop of  9 C 2px           0.95857
pop of  9 C 2py           0.93843
pop of  9 C 2pz           0.93430
pop of  10 C 1s           1.99095
pop of  10 C 2s           1.17456
pop of  10 C 2px          0.99501
pop of  10 C 2py          0.93615
pop of  10 C 2pz          0.96932
pop of  11 C 1s           1.99142
pop of  11 C 2s           1.19197
pop of  11 C 2px          0.99769
pop of  11 C 2py          0.92137
pop of  11 C 2pz          0.91186
pop of  12 C 1s           1.99144
pop of  12 C 2s           1.06480
pop of  12 C 2px          0.99827
pop of  12 C 2py          0.94494
pop of  12 C 2pz          0.98495
pop of  13 C 1s           1.99038
pop of  13 C 2s           1.00779
pop of  13 C 2px          1.02565
pop of  13 C 2py          1.01059
pop of  13 C 2pz          1.04018
pop of  14 C 1s           1.99129
pop of  14 C 2s           1.19391
pop of  14 C 2px          0.96478
pop of  14 C 2py          0.93915
pop of  14 C 2pz          0.96781
pop of  15 C 1s           1.99067
pop of  15 C 2s           1.03405
pop of  15 C 2px          1.01500
pop of  15 C 2py          0.99337
pop of  15 C 2pz          1.05797
pop of  16 C 1s           1.99124
pop of  16 C 2s           1.06803
pop of  16 C 2px          0.98474
pop of  16 C 2py          0.95906
pop of  16 C 2pz          0.98181
pop of  17 C 1s           1.99090
pop of  17 C 2s           1.03306
pop of  17 C 2px          0.99631
pop of  17 C 2py          1.01928
pop of  17 C 2pz          1.02226
pop of  18 C 1s           1.99173
pop of  18 C 2s           1.24094
pop of  18 C 2px          0.94419
pop of  18 C 2py          0.91697
pop of  18 C 2pz          0.97299
pop of  19 C 1s           1.99197
pop of  19 C 2s           1.19896
pop of  19 C 2px          1.04911
pop of  19 C 2py          0.89384
pop of  19 C 2pz          0.98685
pop of  20 C 1s           1.99090
pop of  20 C 2s           1.15557
pop of  20 C 2px          1.01516
pop of  20 C 2py          0.96869
pop of  20 C 2pz          0.97702
pop of  21 C 1s           1.99112
pop of  21 C 2s           1.15621
pop of  21 C 2px          0.97971
pop of  21 C 2py          0.96847
pop of  21 C 2pz          0.96675
pop of  22 H 1s           0.87990
pop of  23 H 1s           0.90983
pop of  24 H 1s           0.89050
pop of  25 H 1s           0.90669
pop of  26 H 1s           0.94659
pop of  27 H 1s           0.91424
pop of  28 H 1s           0.93129
pop of  29 H 1s           0.97969
pop of  30 H 1s           0.89396
pop of  31 H 1s           0.88514
pop of  32 H 1s           0.90079
pop of  33 H 1s           0.88749
pop of  34 H 1s           0.91154
pop of  35 H 1s           0.92575
 ** Mulliken atomic charges  **
charge of    0C =     -0.01084
charge of    1C =      0.01942
charge of    2C =     -0.12765
charge of    3C =     -0.08677
charge of    4C =     -0.11540
charge of    5C =     -0.09927
charge of    6C =     -0.05171
charge of    7C =     -0.06495
charge of    8C =     -0.00382
charge of    9C =     -0.00449
charge of   10C =     -0.06597
charge of   11C =     -0.01432
charge of   12C =      0.01561
charge of   13C =     -0.07459
charge of   14C =     -0.05695
charge of   15C =     -0.09107
charge of   16C =      0.01513
charge of   17C =     -0.06181
charge of   18C =     -0.06682
charge of   19C =     -0.12072
charge of   20C =     -0.10734
charge of   21C =     -0.06226
charge of   22H =      0.12010
charge of   23H =      0.09017
charge of   24H =      0.10950
charge of   25H =      0.09331
charge of   26H =      0.05341
charge of   27H =      0.08576
charge of   28H =      0.06871
charge of   29H =      0.02031
charge of   30H =      0.10604
charge of   31H =      0.11486
charge of   32H =      0.09921
charge of   33H =      0.11251
charge of   34H =      0.08846
charge of   35H =      0.07425
Dipole moment(X, Y, Z, Debye):  0.35122,  0.49358,  1.13536
nelec by numeric integration = 146.00000118074902
    CPU time for vxc     37.58 sec, wall time     15.71 sec
E1 = -4115.509302814501  Ecoul = 1902.6125408142686  Exc = -124.74499653934424
nelec by numeric integration = 146.00000118074902
    CPU time for vxc     37.92 sec, wall time     15.76 sec
E1 = -4115.509302814501  Ecoul = 1902.6125408142693  Exc = -124.74499653934424
