System: uname_result(system='Linux', node='cosmopc18', release='5.15.0-97-generic', version='#107-Ubuntu SMP Wed Feb 7 13:26:48 UTC 2024', machine='x86_64')  Threads 4
Python 3.11.8 (main, Feb 26 2024, 21:39:34) [GCC 11.2.0]
numpy 1.26.4  scipy 1.11.4
Date: Tue Apr  9 14:35:54 2024
PySCF version 2.3.0
PySCF path  /home/saade/miniconda3/envs/tutorial/lib/python3.11/site-packages/pyscf

[ENV] PYSCFAD_BACKEND torch
[CONFIG] conf_file None
[INPUT] verbose = 5
[INPUT] max_memory = 4000 
[INPUT] num. atoms = 36
[INPUT] num. electrons = 146
[INPUT] charge = 0
[INPUT] spin (= nelec alpha-beta = 2S) = 0
[INPUT] symmetry False subgroup None
[INPUT] Mole.unit = angstrom
[INPUT] Symbol           X                Y                Z      unit          X                Y                Z       unit  Magmom
[INPUT]  1 C      0.169702000000   3.742878000000   0.738434000000 AA    0.320690302791   7.073014337660   1.395438021067 Bohr   0.0
[INPUT]  2 C     -0.229875000000   3.628723000000  -0.677393000000 AA   -0.434400792884   6.857292651910  -1.280087248698 Bohr   0.0
[INPUT]  3 C      0.100911000000   4.804991000000   1.153464000000 AA    0.190694152956   9.080117021000   2.179731054545 Bohr   0.0
[INPUT]  4 C     -0.168146000000   2.331500000000   1.504668000000 AA   -0.317749888941   4.405896459423   2.843410428397 Bohr   0.0
[INPUT]  5 C     -0.021709000000   4.931342000000  -1.415513000000 AA   -0.041024064438   9.318885806565  -2.674931895761 Bohr   0.0
[INPUT]  6 C      0.057547000000   2.692186000000  -1.525167000000 AA    0.108748069290   5.087494216388  -2.882147924225 Bohr   0.0
[INPUT]  7 C      0.209632000000   5.938904000000  -0.793033000000 AA    0.396147066945  11.222902040084  -1.498615177742 Bohr   0.0
[INPUT]  8 C      0.197280000000   6.052568000000   0.747219000000 AA    0.372805169854  11.437695870307   1.412039265071 Bohr   0.0
[INPUT]  9 C     -0.135518000000   1.243207000000   0.705541000000 AA   -0.256091904949   2.349320746142   1.333279259652 Bohr   0.0
[INPUT] 10 C     -0.025623000000   1.196285000000  -0.745854000000 AA   -0.048420452490   2.260651016925  -1.409459788911 Bohr   0.0
[INPUT] 11 C     -0.058146000000  -0.136085000000   1.414473000000 AA   -0.109880015239  -0.257163379661   2.672966580592 Bohr   0.0
[INPUT] 12 C      0.052394000000   0.011369000000  -1.334454000000 AA    0.099010310570   0.021484296310  -2.521752585830 Bohr   0.0
[INPUT] 13 C     -0.217060000000  -1.137054000000   0.712137000000 AA   -0.410183952598  -2.148720648841   1.345743893169 Bohr   0.0
[INPUT] 14 C     -0.021375000000  -1.220090000000  -0.670383000000 AA   -0.040392895913  -2.305635947321  -1.266840268564 Bohr   0.0
[INPUT] 15 C      0.046952000000  -2.402824000000   1.533053000000 AA    0.088726421001  -4.540679285532   2.897050304443 Bohr   0.0
[INPUT] 16 C      0.041063000000  -2.489761000000  -1.494906000000 AA    0.077597823853  -4.704966405623  -2.824962921969 Bohr   0.0
[INPUT] 17 C      0.001811000000  -3.625195000000   0.595214000000 AA    0.003422294012  -6.850625698143   1.124791445507 Bohr   0.0
[INPUT] 18 C      0.063968000000  -3.655604000000  -0.736133000000 AA    0.120882000736  -6.908090379865  -1.391089761254 Bohr   0.0
[INPUT] 19 C     -0.206224000000  -4.722882000000   1.378081000000 AA   -0.389706880312  -8.924953498638   2.604195667467 Bohr   0.0
[INPUT] 20 C      0.012183000000  -4.962638000000  -1.466041000000 AA    0.023022533376  -9.378026675359  -2.770415977383 Bohr   0.0
[INPUT] 21 C      0.159455000000  -5.927454000000   0.494403000000 AA    0.301326279193 -11.201264675958   0.934286265163 Bohr   0.0
[INPUT] 22 C     -0.040744000000  -6.190861000000  -0.789458000000 AA   -0.076995001219 -11.699031765251  -1.491859406847 Bohr   0.0
[INPUT] 23 H      0.016377000000   4.892203000000   2.467056000000 AA    0.030948044742   9.244923815776   4.662060173965 Bohr   0.0
[INPUT] 24 H      0.016218000000   2.497735000000   2.405351000000 AA    0.030647578288   4.720035081741   4.545454623449 Bohr   0.0
[INPUT] 25 H     -0.025909000000   4.920781000000  -2.382136000000 AA   -0.048960914161   9.298928408963  -4.501584631467 Bohr   0.0
[INPUT] 26 H     -0.074417000000   2.417436000000  -2.588715000000 AA   -0.140627749012   4.568291963664  -4.891962364553 Bohr   0.0
[INPUT] 27 H     -0.089662000000   7.018659000000  -1.145134000000 AA   -0.169436623781  13.263343271714  -2.163989635928 Bohr   0.0
[INPUT] 28 H     -0.075340000000   7.013410000000   1.236806000000 AA   -0.142371966225  13.253424099286   2.337224609219 Bohr   0.0
[INPUT] 29 H      0.189863000000  -0.160488000000   2.475490000000 AA    0.358789071188  -0.303278366279   4.677998124100 Bohr   0.0
[INPUT] 30 H     -0.016707000000  -0.098600000000  -2.590479000000 AA   -0.031571654363  -0.186326995882  -4.895295841437 Bohr   0.0
[INPUT] 31 H      0.042477000000  -2.429892000000   2.363800000000 AA    0.080269896593  -4.591830392272   4.466934613247 Bohr   0.0
[INPUT] 32 H     -0.051060000000  -2.394693000000  -2.317671000000 AA   -0.096489415920  -4.525313922413  -4.379763436847 Bohr   0.0
[INPUT] 33 H     -0.067101000000  -4.905673000000   2.449623000000 AA   -0.126802512684  -9.270378426673   4.629116578435 Bohr   0.0
[INPUT] 34 H      0.111723000000  -4.911984000000  -2.553089000000 AA    0.211125871815  -9.282304488246  -4.824638981640 Bohr   0.0
[INPUT] 35 H     -0.101022000000  -6.940656000000   1.084612000000 AA   -0.190903912556 -13.115938964819   2.049619631417 Bohr   0.0
[INPUT] 36 H     -0.042285000000  -6.644922000000  -1.205041000000 AA   -0.079907069177 -12.557082699097  -2.277197458872 Bohr   0.0
[INPUT] ---------------- BASIS SET ---------------- 
[INPUT] l, kappa, [nprim/nctr], expnt,             c_1 c_2 ...
[INPUT] H
[INPUT] 0    0    [3    /1   ]  3.42525091        0.15432897
                                0.62391373        0.53532814
                                0.1688554         0.44463454
[INPUT] C
[INPUT] 0    0    [3    /1   ]  71.616837         0.15432897
                                13.045096         0.53532814
                                3.5305122         0.44463454
[INPUT] 0    0    [3    /1   ]  2.9412494         -0.09996723
                                0.6834831         0.39951283
                                0.2222899         0.70011547
[INPUT] 1    0    [3    /1   ]  2.9412494         0.15591627
                                0.6834831         0.60768372
                                0.2222899         0.39195739

nuclear repulsion = 1508.01646440139
number of shells = 80
number of NR pGTOs = 372
number of NR cGTOs = 124
basis = sto3g
ecp = {}
CPU time:     43052.78
atom C rad-grids = 99, ang-grids = [ 50  50  50  50  50  50  50  50  50  50  50  50  50  50  50  50  50  50
  50  50  50  50  50  50  50  50  50  50  50  50  50  86  86  86  86  86
  86  86  86  86  86  86  86 434 434 434 434 434 434 434 434 434 590 590
 590 590 590 590 590 590 590 590 590 590 590 590 590 590 590 590 590 590
 590 590 590 590 590 590 590 434 434 434 434 434 434 434 434 434 434 434
 434 434 434 434 434 434 434 434 434]
atom H rad-grids = 99, ang-grids = [ 50  50  50  50  50  50  50  50  50  50  50  50  50  50  50  50  50  50
  50  50  50  50  50  50  50  50  50  50  86  86  86  86  86  86  86 434
 434 434 434 434 434 434 434 590 590 590 590 590 590 590 590 590 590 590
 590 590 590 590 590 590 590 590 590 590 590 590 590 590 590 434 434 434
 434 434 434 434 434 434 434 434 434 434 434 434 434 434 434 434 434 434
 434 434 434 434 434 434 434 434 434]
tot_boxes 5270, boxes in each direction [ 8 29 15]
Padding 0 grids
tot grids = 1157832


******** <class 'pyscf.dft.rks.RKS'> ********
method = RKS
initial guess = minao
damping factor = 0
level_shift factor = 0
DIIS = <class 'pyscf.scf.diis.CDIIS'>
diis_start_cycle = 1
diis_space = 8
SCF conv_tol = 1e-10
SCF conv_tol_grad = None
SCF max_cycles = 50
direct_scf = True
direct_scf_tol = 1e-13
chkfile to save SCF result = /home/saade/mlelec/tutorials/tmp2enk3a96
max_memory 4000 MB (current use 638 MB)
XC library pyscf.dft.libxc version 6.1.0
    S. Lehtola, C. Steigemann, M. J.T. Oliveira, and M. A.L. Marques.,  SoftwareX 7, 1–5 (2018)
XC functionals = b3lypg
    P. J. Stephens, F. J. Devlin, C. F. Chabalowski, and M. J. Frisch.,  J. Phys. Chem. 98, 11623 (1994)
radial grids: 
    Treutler-Ahlrichs [JCP 102, 346 (1995); DOI:10.1063/1.469408] (M4) radial grids
    
becke partition: Becke, JCP 88, 2547 (1988); DOI:10.1063/1.454033
pruning grids: <function nwchem_prune at 0x7f9db5616ca0>
grids dens level: 3
symmetrized grids: False
atomic radii adjust function: <function treutler_atomic_radii_adjust at 0x7f9db5617380>
User specified grid scheme (99, 590)
small_rho_cutoff = 1e-07
Set gradient conv threshold to 1e-05
Initial guess from minao.
nelec by numeric integration = 145.2697653506192
    CPU time for vxc     36.70 sec, wall time     15.43 sec
E1 = -4114.3316770318415  Ecoul = 1891.070688061216  Exc = -126.32907778068017
init E= -841.57360234992
cond(S) = 45.113600746282536
    CPU time for initialize scf     46.67 sec, wall time     17.84 sec
  HOMO = -0.200511331907416  LUMO = -0.166381701801629
  mo_energy =
[-1.02230223e+01 -1.01458531e+01 -1.01335717e+01 -1.01282429e+01
 -1.01271982e+01 -1.01262002e+01 -1.01179917e+01 -1.01133204e+01
 -1.01072782e+01 -1.01060567e+01 -1.01060027e+01 -1.01048258e+01
 -1.01034737e+01 -1.01023051e+01 -1.01012331e+01 -1.00998523e+01
 -1.00965718e+01 -1.00947184e+01 -1.00843815e+01 -1.00827858e+01
 -1.00803225e+01 -1.00791610e+01 -1.10208208e+00 -1.08742367e+00
 -1.05499809e+00 -9.90151967e-01 -9.63965159e-01 -9.56471610e-01
 -9.43934682e-01 -8.96253259e-01 -8.91067725e-01 -8.27167048e-01
 -8.10526539e-01 -7.89333104e-01 -7.49846985e-01 -7.22041653e-01
 -7.14596518e-01 -6.88270076e-01 -6.68333831e-01 -6.61786485e-01
 -6.19621934e-01 -5.96378812e-01 -5.80619182e-01 -5.69245319e-01
 -5.49112009e-01 -5.37613584e-01 -5.24741410e-01 -5.13678983e-01
 -4.96556888e-01 -4.90152717e-01 -4.85663280e-01 -4.74250952e-01
 -4.70455978e-01 -4.63985358e-01 -4.57234891e-01 -4.41480242e-01
 -4.31336190e-01 -4.22229066e-01 -4.14846870e-01 -4.05397617e-01
 -3.86477006e-01 -3.79772002e-01 -3.68532729e-01 -3.65828883e-01
 -3.47844595e-01 -3.37239783e-01 -3.32419888e-01 -3.07171449e-01
 -3.03986724e-01 -2.90220949e-01 -2.64322399e-01 -2.31395599e-01
 -2.00511332e-01 -1.66381702e-01 -1.25904582e-01 -5.95206250e-02
 -5.44597132e-02 -3.79296451e-02 -2.32143939e-02 -1.76880644e-04
  1.59218025e-02  5.62414626e-02  1.01113529e-01  1.04040518e-01
  1.27962379e-01  1.51693060e-01  1.61413628e-01  1.77948435e-01
  1.81782178e-01  1.91043562e-01  2.08192988e-01  2.32388128e-01
  2.47856248e-01  2.55410910e-01  2.63252429e-01  2.88930214e-01
  3.09715075e-01  3.10665671e-01  3.16362820e-01  3.30757550e-01
  3.36695358e-01  3.51390327e-01  3.61715547e-01  3.81010479e-01
  4.22235234e-01  4.34451630e-01  4.48221735e-01  4.54608994e-01
  5.06457195e-01  5.23409541e-01  5.36847375e-01  5.51238061e-01
  5.67037996e-01  6.02652442e-01  6.34496826e-01  6.47215598e-01
  6.57107419e-01  6.93392956e-01  7.08291559e-01  7.49979577e-01
  7.84965303e-01  8.10686114e-01  9.44035578e-01  1.28120183e+00]
nelec by numeric integration = 146.00000406136496
    CPU time for vxc     37.51 sec, wall time     15.64 sec
E1 = -4128.273551365725  Ecoul = 1910.1990331103882  Exc = -124.94773670939723
cycle= 1 E= -835.005790563348  delta_E= 6.57  |g|= 0.322  |ddm|= 9.33
    CPU time for cycle= 1     37.93 sec, wall time     15.71 sec
  HOMO = -0.0836368438762729  LUMO = -0.0130803570420007
  mo_energy =
[-10.0948651  -10.06138171 -10.05396655 -10.02346459 -10.01727579
 -10.01702493 -10.01450456 -10.01068826 -10.0094806  -10.00181564
  -9.99417527  -9.98987265  -9.9812181   -9.97174413  -9.97156368
  -9.97134245  -9.97100175  -9.9646459   -9.96402511  -9.95543261
  -9.93533791  -9.91775223  -0.8436746   -0.84188587  -0.80720727
  -0.76953702  -0.75340351  -0.74121854  -0.7383192   -0.70331985
  -0.69494234  -0.66732712  -0.64569231  -0.62721101  -0.60468412
  -0.58617892  -0.56925228  -0.55097641  -0.53310362  -0.52659783
  -0.50243095  -0.48860893  -0.47059316  -0.44640269  -0.44193117
  -0.43440877  -0.4297267   -0.40361807  -0.40222996  -0.38671144
  -0.37798848  -0.37113988  -0.36467082  -0.35601967  -0.35135812
  -0.34087648  -0.32354375  -0.31948558  -0.30512142  -0.30084414
  -0.29085255  -0.27355481  -0.25816275  -0.25225293  -0.24379772
  -0.23289748  -0.22518899  -0.19843918  -0.1901385   -0.18590618
  -0.16646922  -0.12766415  -0.08363684  -0.01308036   0.01398309
   0.07654814   0.09175297   0.11407153   0.14152992   0.1628637
   0.1798164    0.20458146   0.2466406    0.2503873    0.28064641
   0.30278681   0.31407637   0.31774532   0.32946115   0.34834319
   0.35258921   0.37346348   0.39152342   0.40011482   0.40527075
   0.42327287   0.42514169   0.43540025   0.45201668   0.46146478
   0.48457374   0.50369272   0.51494659   0.53908199   0.5714388
   0.57776824   0.59668433   0.60439629   0.66957508   0.68026007
   0.68934015   0.71356708   0.72624233   0.7604355    0.7812501
   0.78916539   0.80114087   0.85561012   0.86968477   0.90139402
   0.95139252   0.98569794   1.12556454   1.46071125]
nelec by numeric integration = 146.00000395153438
    CPU time for vxc     38.00 sec, wall time     15.77 sec
E1 = -4122.775935252279  Ecoul = 1904.6918800023075  Exc = -124.82852654902011
cycle= 2 E= -834.896117397606  delta_E= 0.11  |g|= 0.61  |ddm|= 1.55
    CPU time for cycle= 2     38.51 sec, wall time     15.85 sec
  HOMO = -0.103427347286742  LUMO = -0.0368226472185434
  mo_energy =
[-1.00556162e+01 -1.00441135e+01 -1.00405977e+01 -1.00375837e+01
 -1.00360764e+01 -1.00339813e+01 -1.00296721e+01 -1.00284344e+01
 -1.00274496e+01 -1.00158247e+01 -1.00137755e+01 -1.00091732e+01
 -1.00061275e+01 -1.00000621e+01 -9.99999652e+00 -9.99174007e+00
 -9.99033622e+00 -9.98708537e+00 -9.98553010e+00 -9.96908839e+00
 -9.96846934e+00 -9.96751978e+00 -8.60268946e-01 -8.39468514e-01
 -8.30228348e-01 -7.82633191e-01 -7.64628002e-01 -7.55064460e-01
 -7.46925581e-01 -7.18886723e-01 -7.08521338e-01 -6.75187425e-01
 -6.64731522e-01 -6.33994197e-01 -6.17621290e-01 -5.93390437e-01
 -5.85729762e-01 -5.64462755e-01 -5.44775101e-01 -5.27493121e-01
 -5.04884356e-01 -4.93163973e-01 -4.78965980e-01 -4.68188013e-01
 -4.53223336e-01 -4.38758390e-01 -4.23418712e-01 -4.14880457e-01
 -4.10686933e-01 -3.99632563e-01 -3.86269815e-01 -3.79517870e-01
 -3.75507533e-01 -3.67666494e-01 -3.53209407e-01 -3.46471660e-01
 -3.41477621e-01 -3.30195250e-01 -3.18369770e-01 -3.11993715e-01
 -2.98933324e-01 -2.85459892e-01 -2.68215771e-01 -2.54974719e-01
 -2.50307869e-01 -2.41719832e-01 -2.36237666e-01 -2.22365970e-01
 -2.01782950e-01 -1.99877414e-01 -1.69690081e-01 -1.34097221e-01
 -1.03427347e-01 -3.68226472e-02  6.89043054e-03  6.76652304e-02
  8.75486740e-02  1.04966505e-01  1.17648455e-01  1.54221455e-01
  1.66498429e-01  1.99883119e-01  2.39069695e-01  2.49963748e-01
  2.78043314e-01  2.89135873e-01  2.96527508e-01  3.07547643e-01
  3.21684556e-01  3.35327511e-01  3.37836422e-01  3.60528579e-01
  3.80296611e-01  3.94725654e-01  4.00683889e-01  4.22053515e-01
  4.36455240e-01  4.47546708e-01  4.58390432e-01  4.60839527e-01
  4.67331812e-01  4.94593989e-01  5.01024428e-01  5.19221039e-01
  5.54246416e-01  5.79321038e-01  5.89675357e-01  5.99163412e-01
  6.40364109e-01  6.57789318e-01  6.80332032e-01  6.95552349e-01
  7.07913393e-01  7.34281926e-01  7.79267188e-01  7.99507539e-01
  8.06028420e-01  8.17162846e-01  8.36720929e-01  8.83854835e-01
  9.36109918e-01  9.59351289e-01  1.11991248e+00  1.44234300e+00]
nelec by numeric integration = 146.0000040231467
    CPU time for vxc     38.44 sec, wall time     15.84 sec
E1 = -4125.734428471898  Ecoul = 1907.5775772950603  Exc = -124.83571336690392
cycle= 3 E= -834.976100142356  delta_E= -0.08  |g|= 0.402  |ddm|= 1.79
    CPU time for cycle= 3     38.85 sec, wall time     15.91 sec
  HOMO = -0.096945366877901  LUMO = -0.0381919125024076
  mo_energy =
[-1.00789578e+01 -1.00402573e+01 -1.00328689e+01 -1.00301947e+01
 -1.00278711e+01 -1.00253511e+01 -1.00252003e+01 -1.00244233e+01
 -1.00235934e+01 -1.00230317e+01 -1.00171196e+01 -1.00153236e+01
 -1.00147017e+01 -1.00099427e+01 -1.00097150e+01 -1.00085614e+01
 -1.00070371e+01 -1.00058616e+01 -1.00054406e+01 -1.00022774e+01
 -1.00010427e+01 -9.99022408e+00 -8.66138598e-01 -8.49786848e-01
 -8.30692832e-01 -7.85801005e-01 -7.71626821e-01 -7.62053726e-01
 -7.55214507e-01 -7.22560483e-01 -7.17024993e-01 -6.71075152e-01
 -6.57376345e-01 -6.47085244e-01 -6.18000797e-01 -5.94668027e-01
 -5.86576136e-01 -5.68382198e-01 -5.45928972e-01 -5.42091944e-01
 -5.10487405e-01 -4.94810741e-01 -4.80338615e-01 -4.66684370e-01
 -4.51614164e-01 -4.41773543e-01 -4.31168927e-01 -4.17100766e-01
 -4.08786694e-01 -3.99969994e-01 -3.93928164e-01 -3.83081263e-01
 -3.81487418e-01 -3.72991107e-01 -3.62664462e-01 -3.51717892e-01
 -3.40034696e-01 -3.31905526e-01 -3.24696568e-01 -3.18801366e-01
 -3.00843958e-01 -2.91641608e-01 -2.73891729e-01 -2.71072673e-01
 -2.57930191e-01 -2.45532796e-01 -2.42152378e-01 -2.17958536e-01
 -2.11480027e-01 -1.99808780e-01 -1.84008108e-01 -1.35603343e-01
 -9.69453669e-02 -3.81919125e-02  3.88281899e-03  7.17865923e-02
  7.85239191e-02  9.86643984e-02  1.17069702e-01  1.40303776e-01
  1.55522137e-01  1.88839824e-01  2.36644735e-01  2.41051339e-01
  2.66029983e-01  2.92848920e-01  2.97191091e-01  3.12502573e-01
  3.21325758e-01  3.23754596e-01  3.40552088e-01  3.65082849e-01
  3.81538709e-01  3.90864584e-01  3.98762850e-01  4.25822676e-01
  4.36383436e-01  4.40953237e-01  4.45218633e-01  4.53523488e-01
  4.64474097e-01  4.85668914e-01  5.04695262e-01  5.17478864e-01
  5.56779778e-01  5.75055758e-01  5.79266905e-01  5.91143972e-01
  6.45917674e-01  6.59770887e-01  6.71056747e-01  6.89107195e-01
  7.04130926e-01  7.36329759e-01  7.73167254e-01  7.82108144e-01
  7.90321664e-01  8.30933255e-01  8.42658123e-01  8.84264880e-01
  9.30206255e-01  9.48783537e-01  1.08711744e+00  1.42491478e+00]
nelec by numeric integration = 146.00000400482364
    CPU time for vxc     37.60 sec, wall time     15.66 sec
E1 = -4125.306699866677  Ecoul = 1907.091925494721  Exc = -124.84488220136193
cycle= 4 E= -835.043192171933  delta_E= -0.0671  |g|= 0.101  |ddm|= 0.968
    CPU time for cycle= 4     38.10 sec, wall time     15.74 sec
  HOMO = -0.103239953887477  LUMO = -0.0431442617758999
  mo_energy =
[-1.00775518e+01 -1.00434139e+01 -1.00365356e+01 -1.00361265e+01
 -1.00340432e+01 -1.00307900e+01 -1.00271935e+01 -1.00263819e+01
 -1.00252505e+01 -1.00222562e+01 -1.00215030e+01 -1.00186244e+01
 -1.00170783e+01 -1.00161855e+01 -1.00138820e+01 -1.00126899e+01
 -1.00118035e+01 -1.00116014e+01 -1.00105673e+01 -1.00066196e+01
 -1.00060513e+01 -1.00028574e+01 -8.61886517e-01 -8.56087241e-01
 -8.36045934e-01 -7.89951169e-01 -7.69024952e-01 -7.64005680e-01
 -7.58810925e-01 -7.24220265e-01 -7.17438414e-01 -6.73289319e-01
 -6.65152873e-01 -6.48347382e-01 -6.22601914e-01 -5.98904496e-01
 -5.91510361e-01 -5.66868919e-01 -5.47260191e-01 -5.40737773e-01
 -5.11760602e-01 -4.96752840e-01 -4.81047284e-01 -4.69491622e-01
 -4.56876059e-01 -4.42823761e-01 -4.33905509e-01 -4.19628181e-01
 -4.10802343e-01 -4.04178797e-01 -3.93885558e-01 -3.86784565e-01
 -3.84303087e-01 -3.70721122e-01 -3.66710906e-01 -3.54428350e-01
 -3.44524178e-01 -3.34133797e-01 -3.27185216e-01 -3.19224216e-01
 -3.04235731e-01 -2.93468762e-01 -2.74611255e-01 -2.69962277e-01
 -2.59115694e-01 -2.48709161e-01 -2.46598920e-01 -2.22442979e-01
 -2.11136029e-01 -2.04537141e-01 -1.82765492e-01 -1.39771626e-01
 -1.03239954e-01 -4.31442618e-02 -6.89857038e-04  6.53738820e-02
  7.92744854e-02  9.49743631e-02  1.14352547e-01  1.42745108e-01
  1.52926770e-01  1.91562704e-01  2.34162917e-01  2.40699582e-01
  2.65938642e-01  2.89727920e-01  2.93607091e-01  3.09465319e-01
  3.18089794e-01  3.23925714e-01  3.35158506e-01  3.64290547e-01
  3.82019843e-01  3.87495574e-01  3.93763465e-01  4.22704516e-01
  4.34311160e-01  4.39802488e-01  4.45020172e-01  4.48259195e-01
  4.63479402e-01  4.86980515e-01  4.96107434e-01  5.14443920e-01
  5.51813259e-01  5.67014554e-01  5.83586176e-01  5.86835051e-01
  6.43880981e-01  6.58469016e-01  6.68673208e-01  6.87971957e-01
  7.01251536e-01  7.34394883e-01  7.72002560e-01  7.80047063e-01
  7.90031398e-01  8.29344063e-01  8.33216360e-01  8.78872641e-01
  9.31981661e-01  9.39743120e-01  1.09478941e+00  1.42389263e+00]
nelec by numeric integration = 146.00000401839674
    CPU time for vxc     38.07 sec, wall time     15.75 sec
E1 = -4125.533737041926  Ecoul = 1907.3184332831347  Exc = -124.84809414983016
cycle= 5 E= -835.046933507235  delta_E= -0.00374  |g|= 0.0365  |ddm|= 0.245
    CPU time for cycle= 5     38.60 sec, wall time     15.83 sec
  HOMO = -0.102807111414492  LUMO = -0.0416547213200279
  mo_energy =
[-1.00732592e+01 -1.00411416e+01 -1.00358958e+01 -1.00330419e+01
 -1.00302006e+01 -1.00296359e+01 -1.00296288e+01 -1.00286111e+01
 -1.00277606e+01 -1.00257319e+01 -1.00196003e+01 -1.00193249e+01
 -1.00172406e+01 -1.00149619e+01 -1.00145187e+01 -1.00132656e+01
 -1.00128325e+01 -1.00115098e+01 -1.00109060e+01 -1.00097646e+01
 -1.00041469e+01 -9.99888390e+00 -8.62186219e-01 -8.54926431e-01
 -8.34670780e-01 -7.88724597e-01 -7.69136135e-01 -7.63341468e-01
 -7.59165377e-01 -7.24840416e-01 -7.18183890e-01 -6.73199640e-01
 -6.63130962e-01 -6.47946927e-01 -6.21631753e-01 -5.97451207e-01
 -5.90723200e-01 -5.68049089e-01 -5.47561227e-01 -5.40799164e-01
 -5.12032028e-01 -4.96703592e-01 -4.80438733e-01 -4.69240182e-01
 -4.55332818e-01 -4.43042450e-01 -4.33404963e-01 -4.19541381e-01
 -4.10952043e-01 -4.03103649e-01 -3.93159514e-01 -3.87390857e-01
 -3.84305344e-01 -3.71142621e-01 -3.66432498e-01 -3.54516763e-01
 -3.44164808e-01 -3.34274857e-01 -3.27396769e-01 -3.19296289e-01
 -3.03960333e-01 -2.93387373e-01 -2.74693158e-01 -2.70330788e-01
 -2.59055140e-01 -2.47889425e-01 -2.46539555e-01 -2.22268741e-01
 -2.12258849e-01 -2.05017563e-01 -1.83456628e-01 -1.40046241e-01
 -1.02807111e-01 -4.16547213e-02 -3.23446667e-04  6.56583254e-02
  7.81003032e-02  9.56047500e-02  1.14372413e-01  1.42664754e-01
  1.53118564e-01  1.90328389e-01  2.34131610e-01  2.39266651e-01
  2.65988293e-01  2.89331080e-01  2.94436069e-01  3.09863463e-01
  3.19026427e-01  3.23146987e-01  3.35717492e-01  3.63999333e-01
  3.81575808e-01  3.87214668e-01  3.94486784e-01  4.22854533e-01
  4.34459824e-01  4.40498862e-01  4.45822348e-01  4.49450728e-01
  4.62906899e-01  4.86766892e-01  4.97782046e-01  5.14341544e-01
  5.51941853e-01  5.69938619e-01  5.81982957e-01  5.86202089e-01
  6.42476200e-01  6.58815605e-01  6.69031395e-01  6.87403871e-01
  7.01557628e-01  7.33247346e-01  7.72376969e-01  7.81131880e-01
  7.88606897e-01  8.28216865e-01  8.35256829e-01  8.80278802e-01
  9.33378731e-01  9.42148623e-01  1.09413558e+00  1.42675530e+00]
nelec by numeric integration = 146.0000040122816
    CPU time for vxc     38.69 sec, wall time     15.95 sec
E1 = -4125.577648022654  Ecoul = 1907.360516098611  Exc = -124.8467201799777
cycle= 6 E= -835.047387702635  delta_E= -0.000454  |g|= 0.0143  |ddm|= 0.0814
    CPU time for cycle= 6     39.00 sec, wall time     16.00 sec
  HOMO = -0.102533631439138  LUMO = -0.0409814341240253
  mo_energy =
[-1.00746624e+01 -1.00395693e+01 -1.00340852e+01 -1.00312906e+01
 -1.00301623e+01 -1.00296736e+01 -1.00283779e+01 -1.00272878e+01
 -1.00271155e+01 -1.00242162e+01 -1.00206126e+01 -1.00173599e+01
 -1.00142651e+01 -1.00136181e+01 -1.00127528e+01 -1.00118952e+01
 -1.00116607e+01 -1.00107345e+01 -1.00101762e+01 -1.00101549e+01
 -1.00035593e+01 -9.99945074e+00 -8.61915364e-01 -8.54278150e-01
 -8.34148782e-01 -7.88274228e-01 -7.68692653e-01 -7.62954973e-01
 -7.58162626e-01 -7.23774146e-01 -7.17339842e-01 -6.72477153e-01
 -6.62947677e-01 -6.47520749e-01 -6.20994903e-01 -5.97258795e-01
 -5.90214695e-01 -5.67306616e-01 -5.46820204e-01 -5.40524851e-01
 -5.11322552e-01 -4.96036947e-01 -4.80174584e-01 -4.68618069e-01
 -4.55012374e-01 -4.42365464e-01 -4.33186726e-01 -4.18955430e-01
 -4.10438417e-01 -4.02472798e-01 -3.93097855e-01 -3.86333519e-01
 -3.83569914e-01 -3.70766274e-01 -3.65772987e-01 -3.53759827e-01
 -3.43478328e-01 -3.33510899e-01 -3.26719317e-01 -3.18898890e-01
 -3.03346512e-01 -2.93051852e-01 -2.74036931e-01 -2.70054710e-01
 -2.58765182e-01 -2.47401204e-01 -2.45950068e-01 -2.21552456e-01
 -2.11411081e-01 -2.03930935e-01 -1.83114271e-01 -1.39258528e-01
 -1.02533631e-01 -4.09814341e-02  5.54089743e-04  6.67499590e-02
  7.88304793e-02  9.58972721e-02  1.15182196e-01  1.42937806e-01
  1.53796332e-01  1.90638447e-01  2.35079840e-01  2.40301688e-01
  2.66341734e-01  2.90354126e-01  2.95017868e-01  3.10319793e-01
  3.19569667e-01  3.23681400e-01  3.36004432e-01  3.64600301e-01
  3.82273355e-01  3.87937814e-01  3.94981923e-01  4.23477621e-01
  4.35189597e-01  4.40640547e-01  4.45929418e-01  4.49682317e-01
  4.63740439e-01  4.87074088e-01  4.98567737e-01  5.15099314e-01
  5.53122145e-01  5.70013781e-01  5.82565185e-01  5.87349556e-01
  6.43908916e-01  6.59499644e-01  6.69534140e-01  6.88367405e-01
  7.01910686e-01  7.34433178e-01  7.73137571e-01  7.81488416e-01
  7.89517367e-01  8.29622637e-01  8.35702628e-01  8.81025351e-01
  9.33449675e-01  9.42601170e-01  1.09373455e+00  1.42588387e+00]
nelec by numeric integration = 146.0000040126805
    CPU time for vxc     38.40 sec, wall time     15.92 sec
E1 = -4125.491962605931  Ecoul = 1907.2737392338345  Exc = -124.84569920435628
cycle= 7 E= -835.047458175067  delta_E= -7.05e-05  |g|= 0.00424  |ddm|= 0.026
    CPU time for cycle= 7     39.11 sec, wall time     16.02 sec
  HOMO = -0.102528498033513  LUMO = -0.040912168327086
  mo_energy =
[-1.00744376e+01 -1.00399638e+01 -1.00344677e+01 -1.00315399e+01
 -1.00301229e+01 -1.00293421e+01 -1.00284168e+01 -1.00272618e+01
 -1.00265291e+01 -1.00249096e+01 -1.00205292e+01 -1.00172155e+01
 -1.00146572e+01 -1.00138834e+01 -1.00122173e+01 -1.00120844e+01
 -1.00117634e+01 -1.00105806e+01 -1.00098065e+01 -1.00095837e+01
 -1.00036618e+01 -9.99953181e+00 -8.61734915e-01 -8.54370952e-01
 -8.34220080e-01 -7.88301418e-01 -7.68637593e-01 -7.62987246e-01
 -7.58256238e-01 -7.23881067e-01 -7.17350496e-01 -6.72493363e-01
 -6.62898599e-01 -6.47475773e-01 -6.21132043e-01 -5.97240863e-01
 -5.90209718e-01 -5.67310689e-01 -5.46886880e-01 -5.40448807e-01
 -5.11370459e-01 -4.96152308e-01 -4.80126734e-01 -4.68685847e-01
 -4.55010965e-01 -4.42427142e-01 -4.33094257e-01 -4.18875497e-01
 -4.10429768e-01 -4.02638225e-01 -3.93017624e-01 -3.86446401e-01
 -3.83628011e-01 -3.70647101e-01 -3.65843955e-01 -3.53820326e-01
 -3.43508047e-01 -3.33595549e-01 -3.26733664e-01 -3.18902051e-01
 -3.03443020e-01 -2.92962520e-01 -2.74038261e-01 -2.69942256e-01
 -2.58660546e-01 -2.47473589e-01 -2.45917867e-01 -2.21565015e-01
 -2.11355311e-01 -2.04024131e-01 -1.82991064e-01 -1.39269771e-01
 -1.02528498e-01 -4.09121683e-02  5.34555042e-04  6.66807825e-02
  7.89449737e-02  9.60369734e-02  1.15029619e-01  1.43025453e-01
  1.53734265e-01  1.90792608e-01  2.34981940e-01  2.40243123e-01
  2.66447007e-01  2.90190819e-01  2.94967960e-01  3.10306031e-01
  3.19519957e-01  3.23770862e-01  3.36217301e-01  3.64539173e-01
  3.82285942e-01  3.87915689e-01  3.94988817e-01  4.23457449e-01
  4.35138482e-01  4.40764759e-01  4.45980009e-01  4.49692645e-01
  4.63700589e-01  4.87220638e-01  4.98420219e-01  5.15018700e-01
  5.52894790e-01  5.70059687e-01  5.82818102e-01  5.87149342e-01
  6.43731893e-01  6.59443984e-01  6.69576165e-01  6.88234990e-01
  7.02050268e-01  7.34328514e-01  7.73178836e-01  7.81566444e-01
  7.89615852e-01  8.29404799e-01  8.35617125e-01  8.80662494e-01
  9.33506672e-01  9.42381891e-01  1.09409677e+00  1.42604115e+00]
nelec by numeric integration = 146.0000040128367
    CPU time for vxc     38.72 sec, wall time     15.87 sec
E1 = -4125.504807896407  Ecoul = 1907.2864860943432  Exc = -124.84560698314431
cycle= 8 E= -835.047464383822  delta_E= -6.21e-06  |g|= 0.00153  |ddm|= 0.00865
    CPU time for cycle= 8     39.21 sec, wall time     15.94 sec
  HOMO = -0.102575529846614  LUMO = -0.0409299440157968
  mo_energy =
[-1.00743676e+01 -1.00398479e+01 -1.00344946e+01 -1.00313030e+01
 -1.00300482e+01 -1.00294937e+01 -1.00282147e+01 -1.00272475e+01
 -1.00266327e+01 -1.00245571e+01 -1.00207407e+01 -1.00173852e+01
 -1.00147165e+01 -1.00136623e+01 -1.00121245e+01 -1.00120049e+01
 -1.00117265e+01 -1.00106582e+01 -1.00100079e+01 -1.00100060e+01
 -1.00039105e+01 -9.99970483e+00 -8.61849845e-01 -8.54339734e-01
 -8.34156242e-01 -7.88257181e-01 -7.68706274e-01 -7.63030769e-01
 -7.58232806e-01 -7.23875620e-01 -7.17386863e-01 -6.72492554e-01
 -6.62914752e-01 -6.47512939e-01 -6.21085626e-01 -5.97195242e-01
 -5.90157190e-01 -5.67328427e-01 -5.46889291e-01 -5.40541928e-01
 -5.11348030e-01 -4.96120242e-01 -4.80215768e-01 -4.68678150e-01
 -4.55057428e-01 -4.42393244e-01 -4.33119269e-01 -4.18898372e-01
 -4.10434972e-01 -4.02582102e-01 -3.93129806e-01 -3.86423999e-01
 -3.83616196e-01 -3.70730703e-01 -3.65826983e-01 -3.53792117e-01
 -3.43478121e-01 -3.33554303e-01 -3.26720301e-01 -3.18924411e-01
 -3.03372984e-01 -2.92998218e-01 -2.74058474e-01 -2.70032059e-01
 -2.58656108e-01 -2.47423944e-01 -2.45923130e-01 -2.21553173e-01
 -2.11412261e-01 -2.03992386e-01 -1.83070441e-01 -1.39252957e-01
 -1.02575530e-01 -4.09299440e-02  5.68878194e-04  6.67243021e-02
  7.88910957e-02  9.60440562e-02  1.15100307e-01  1.42915387e-01
  1.53718421e-01  1.90756317e-01  2.35005226e-01  2.40220751e-01
  2.66379704e-01  2.90235408e-01  2.94972728e-01  3.10301450e-01
  3.19527058e-01  3.23662622e-01  3.36248221e-01  3.64544342e-01
  3.82242008e-01  3.87914774e-01  3.95070838e-01  4.23496962e-01
  4.35154164e-01  4.40631947e-01  4.45885765e-01  4.49693963e-01
  4.63694543e-01  4.87133253e-01  4.98503763e-01  5.15049829e-01
  5.52976611e-01  5.70143935e-01  5.82739405e-01  5.87226936e-01
  6.43773259e-01  6.59415687e-01  6.69494349e-01  6.88245014e-01
  7.02091580e-01  7.34374517e-01  7.73119641e-01  7.81457601e-01
  7.89544074e-01  8.29439889e-01  8.35604198e-01  8.80818865e-01
  9.33319855e-01  9.42448443e-01  1.09393414e+00  1.42610796e+00]
nelec by numeric integration = 146.00000401267454
    CPU time for vxc     38.46 sec, wall time     15.89 sec
E1 = -4125.501293397794  Ecoul = 1907.283048230525  Exc = -124.8456841275492
cycle= 9 E= -835.047464893432  delta_E= -5.1e-07  |g|= 0.00112  |ddm|= 0.00469
    CPU time for cycle= 9     39.12 sec, wall time     15.99 sec
  HOMO = -0.102602721773691  LUMO = -0.0409380164786886
  mo_energy =
[-1.00744408e+01 -1.00399113e+01 -1.00345155e+01 -1.00313920e+01
 -1.00301017e+01 -1.00294891e+01 -1.00283358e+01 -1.00273434e+01
 -1.00266642e+01 -1.00246500e+01 -1.00206843e+01 -1.00173186e+01
 -1.00147504e+01 -1.00137737e+01 -1.00122099e+01 -1.00121266e+01
 -1.00118693e+01 -1.00106802e+01 -1.00100053e+01 -1.00098613e+01
 -1.00038674e+01 -9.99962993e+00 -8.61842337e-01 -8.54380873e-01
 -8.34219037e-01 -7.88310481e-01 -7.68703446e-01 -7.63047494e-01
 -7.58262567e-01 -7.23899445e-01 -7.17420232e-01 -6.72517120e-01
 -6.62952888e-01 -6.47513371e-01 -6.21122580e-01 -5.97252922e-01
 -5.90210371e-01 -5.67356760e-01 -5.46906744e-01 -5.40526219e-01
 -5.11376081e-01 -4.96148669e-01 -4.80199491e-01 -4.68714237e-01
 -4.55065172e-01 -4.42434557e-01 -4.33126733e-01 -4.18921522e-01
 -4.10456230e-01 -4.02624358e-01 -3.93096987e-01 -3.86454678e-01
 -3.83649518e-01 -3.70724450e-01 -3.65853457e-01 -3.53827507e-01
 -3.43522006e-01 -3.33588146e-01 -3.26755405e-01 -3.18928098e-01
 -3.03414083e-01 -2.93012607e-01 -2.74078862e-01 -2.70022123e-01
 -2.58681821e-01 -2.47458882e-01 -2.45943161e-01 -2.21585667e-01
 -2.11421569e-01 -2.04035557e-01 -1.83053007e-01 -1.39291340e-01
 -1.02602722e-01 -4.09380165e-02  5.25282778e-04  6.66820422e-02
  7.88733902e-02  9.60042198e-02  1.15044879e-01  1.42934924e-01
  1.53692300e-01  1.90760487e-01  2.34974562e-01  2.40222855e-01
  2.66386313e-01  2.90198568e-01  2.94953394e-01  3.10292847e-01
  3.19492809e-01  3.23686891e-01  3.36192510e-01  3.64516835e-01
  3.82244186e-01  3.87896010e-01  3.95015422e-01  4.23451342e-01
  4.35122484e-01  4.40679811e-01  4.45916683e-01  4.49678628e-01
  4.63656594e-01  4.87135697e-01  4.98448744e-01  5.15002530e-01
  5.52925470e-01  5.70074594e-01  5.82734059e-01  5.87181552e-01
  6.43692582e-01  6.59401446e-01  6.69491787e-01  6.88216306e-01
  7.02019192e-01  7.34302597e-01  7.73108430e-01  7.81470564e-01
  7.89540189e-01  8.29393324e-01  8.35577983e-01  8.80756022e-01
  9.33369569e-01  9.42399857e-01  1.09396194e+00  1.42604718e+00]
nelec by numeric integration = 146.00000401268363
    CPU time for vxc     38.45 sec, wall time     15.83 sec
E1 = -4125.506394363723  Ecoul = 1907.2881894284515  Exc = -124.84572490473384
cycle= 10 E= -835.04746543862  delta_E= -5.45e-07  |g|= 0.000269  |ddm|= 0.00244
    CPU time for cycle= 10     39.02 sec, wall time     15.92 sec
  HOMO = -0.102616629167931  LUMO = -0.0409494278332621
  mo_energy =
[-1.00744828e+01 -1.00399185e+01 -1.00345092e+01 -1.00314709e+01
 -1.00301307e+01 -1.00295089e+01 -1.00283209e+01 -1.00273086e+01
 -1.00266591e+01 -1.00247441e+01 -1.00206551e+01 -1.00173399e+01
 -1.00147227e+01 -1.00138267e+01 -1.00121718e+01 -1.00121366e+01
 -1.00118675e+01 -1.00107302e+01 -1.00100557e+01 -1.00098514e+01
 -1.00038286e+01 -9.99962370e+00 -8.61837189e-01 -8.54398901e-01
 -8.34233276e-01 -7.88322089e-01 -7.68705809e-01 -7.63045240e-01
 -7.58283975e-01 -7.23912869e-01 -7.17410586e-01 -6.72522346e-01
 -6.62969145e-01 -6.47519053e-01 -6.21142478e-01 -5.97263401e-01
 -5.90222331e-01 -5.67351033e-01 -5.46916001e-01 -5.40517815e-01
 -5.11387454e-01 -4.96162401e-01 -4.80195722e-01 -4.68719469e-01
 -4.55068586e-01 -4.42438425e-01 -4.33129290e-01 -4.18931301e-01
 -4.10461739e-01 -4.02638801e-01 -3.93088308e-01 -3.86473744e-01
 -3.83655484e-01 -3.70720178e-01 -3.65864540e-01 -3.53834436e-01
 -3.43533710e-01 -3.33601310e-01 -3.26761101e-01 -3.18932686e-01
 -3.03427431e-01 -2.93012617e-01 -2.74082413e-01 -2.70012567e-01
 -2.58686642e-01 -2.47476113e-01 -2.45956089e-01 -2.21596744e-01
 -2.11416294e-01 -2.04048054e-01 -1.83046494e-01 -1.39299976e-01
 -1.02616629e-01 -4.09494278e-02  5.12142148e-04  6.66644040e-02
  7.88756281e-02  9.59952233e-02  1.15028356e-01  1.42942253e-01
  1.53690135e-01  1.90764640e-01  2.34966545e-01  2.40218569e-01
  2.66383209e-01  2.90183992e-01  2.94939726e-01  3.10286155e-01
  3.19478597e-01  3.23697273e-01  3.36180602e-01  3.64511706e-01
  3.82236562e-01  3.87883174e-01  3.95000282e-01  4.23447115e-01
  4.35113592e-01  4.40687148e-01  4.45924668e-01  4.49674543e-01
  4.63663912e-01  4.87140012e-01  4.98420956e-01  5.14995741e-01
  5.52904004e-01  5.70062727e-01  5.82734611e-01  5.87156775e-01
  6.43702329e-01  6.59392384e-01  6.69494333e-01  6.88206953e-01
  7.02009515e-01  7.34302182e-01  7.73108085e-01  7.81476235e-01
  7.89540446e-01  8.29384012e-01  8.35554260e-01  8.80720107e-01
  9.33387274e-01  9.42368684e-01  1.09396946e+00  1.42602770e+00]
nelec by numeric integration = 146.0000040127208
    CPU time for vxc     38.13 sec, wall time     15.79 sec
E1 = -4125.506953329798  Ecoul = 1907.2887597949946  Exc = -124.84573632035648
cycle= 11 E= -835.047465453775  delta_E= -1.52e-08  |g|= 0.000193  |ddm|= 0.000703
    CPU time for cycle= 11     38.63 sec, wall time     15.87 sec
  HOMO = -0.102606819560892  LUMO = -0.0409375722855719
  mo_energy =
[-1.00744596e+01 -1.00399156e+01 -1.00345032e+01 -1.00314287e+01
 -1.00301025e+01 -1.00294978e+01 -1.00283367e+01 -1.00273148e+01
 -1.00266557e+01 -1.00247010e+01 -1.00206567e+01 -1.00173355e+01
 -1.00147347e+01 -1.00137908e+01 -1.00121607e+01 -1.00121424e+01
 -1.00118503e+01 -1.00107001e+01 -1.00100214e+01 -1.00098603e+01
 -1.00038278e+01 -9.99962221e+00 -8.61833872e-01 -8.54385277e-01
 -8.34221481e-01 -7.88313024e-01 -7.68700599e-01 -7.63039481e-01
 -7.58270383e-01 -7.23903906e-01 -7.17408471e-01 -6.72517273e-01
 -6.62953359e-01 -6.47515164e-01 -6.21129220e-01 -5.97254527e-01
 -5.90213936e-01 -5.67349684e-01 -5.46907263e-01 -5.40517475e-01
 -5.11379771e-01 -4.96152511e-01 -4.80193704e-01 -4.68710665e-01
 -4.55062097e-01 -4.42433646e-01 -4.33126743e-01 -4.18921546e-01
 -4.10456409e-01 -4.02627324e-01 -3.93089613e-01 -3.86460904e-01
 -3.83648087e-01 -3.70718130e-01 -3.65856075e-01 -3.53828723e-01
 -3.43523372e-01 -3.33592129e-01 -3.26754459e-01 -3.18927938e-01
 -3.03419949e-01 -2.93007813e-01 -2.74076941e-01 -2.70012654e-01
 -2.58681157e-01 -2.47464562e-01 -2.45946939e-01 -2.21586676e-01
 -2.11413171e-01 -2.04038367e-01 -1.83048053e-01 -1.39291695e-01
 -1.02606820e-01 -4.09375723e-02  5.21580629e-04  6.66752693e-02
  7.88784262e-02  9.60035817e-02  1.15041190e-01  1.42943983e-01
  1.53697089e-01  1.90761141e-01  2.34972391e-01  2.40220406e-01
  2.66387680e-01  2.90194577e-01  2.94949380e-01  3.10291108e-01
  3.19491998e-01  3.23694614e-01  3.36191710e-01  3.64519365e-01
  3.82242076e-01  3.87891941e-01  3.95009431e-01  4.23452539e-01
  4.35121553e-01  4.40684173e-01  4.45922322e-01  4.49677824e-01
  4.63665681e-01  4.87143101e-01  4.98437734e-01  5.15004367e-01
  5.52917285e-01  5.70070241e-01  5.82737901e-01  5.87171346e-01
  6.43706406e-01  6.59402343e-01  6.69499895e-01  6.88215810e-01
  7.02020446e-01  7.34309625e-01  7.73112094e-01  7.81478262e-01
  7.89543501e-01  8.29392310e-01  8.35572691e-01  8.80740004e-01
  9.33387118e-01  9.42391065e-01  1.09396996e+00  1.42603846e+00]
nelec by numeric integration = 146.00000401269187
    CPU time for vxc     37.98 sec, wall time     15.83 sec
E1 = -4125.505980266151  Ecoul = 1907.28776826839  Exc = -124.84571787294604
cycle= 12 E= -835.047465469321  delta_E= -1.55e-08  |g|= 3.46e-05  |ddm|= 0.00041
    CPU time for cycle= 12     38.68 sec, wall time     15.94 sec
  HOMO = -0.102607513747549  LUMO = -0.0409358024024607
  mo_energy =
[-1.00744513e+01 -1.00399154e+01 -1.00345068e+01 -1.00314327e+01
 -1.00301074e+01 -1.00294933e+01 -1.00283278e+01 -1.00273132e+01
 -1.00266553e+01 -1.00246997e+01 -1.00206598e+01 -1.00173315e+01
 -1.00147270e+01 -1.00137910e+01 -1.00121572e+01 -1.00121399e+01
 -1.00118533e+01 -1.00107033e+01 -1.00100215e+01 -1.00098588e+01
 -1.00038340e+01 -9.99962149e+00 -8.61833623e-01 -8.54385382e-01
 -8.34220224e-01 -7.88311029e-01 -7.68700359e-01 -7.63039704e-01
 -7.58270418e-01 -7.23902991e-01 -7.17408150e-01 -6.72516780e-01
 -6.62953133e-01 -6.47514737e-01 -6.21129228e-01 -5.97252788e-01
 -5.90213085e-01 -5.67348595e-01 -5.46906975e-01 -5.40517591e-01
 -5.11379228e-01 -4.96152458e-01 -4.80193653e-01 -4.68710585e-01
 -4.55061904e-01 -4.42432689e-01 -4.33125824e-01 -4.18921595e-01
 -4.10455972e-01 -4.02627306e-01 -3.93090261e-01 -3.86461771e-01
 -3.83647145e-01 -3.70717761e-01 -3.65855917e-01 -3.53827502e-01
 -3.43522805e-01 -3.33591628e-01 -3.26753558e-01 -3.18927452e-01
 -3.03419268e-01 -2.93007383e-01 -2.74075369e-01 -2.70012673e-01
 -2.58680385e-01 -2.47464160e-01 -2.45946618e-01 -2.21586652e-01
 -2.11411977e-01 -2.04037967e-01 -1.83047568e-01 -1.39290824e-01
 -1.02607514e-01 -4.09358024e-02  5.22322497e-04  6.66758210e-02
  7.88790080e-02  9.60046705e-02  1.15041484e-01  1.42943953e-01
  1.53697326e-01  1.90761601e-01  2.34973126e-01  2.40222113e-01
  2.66387831e-01  2.90195247e-01  2.94949613e-01  3.10291188e-01
  3.19491693e-01  3.23695753e-01  3.36191444e-01  3.64520204e-01
  3.82242194e-01  3.87891374e-01  3.95009954e-01  4.23453315e-01
  4.35121769e-01  4.40684328e-01  4.45922255e-01  4.49678216e-01
  4.63666756e-01  4.87143050e-01  4.98437813e-01  5.15004737e-01
  5.52917942e-01  5.70073555e-01  5.82739014e-01  5.87171531e-01
  6.43706846e-01  6.59402072e-01  6.69498879e-01  6.88216577e-01
  7.02021056e-01  7.34309720e-01  7.73112573e-01  7.81478177e-01
  7.89544262e-01  8.29393770e-01  8.35572407e-01  8.80739554e-01
  9.33385710e-01  9.42390146e-01  1.09397027e+00  1.42604300e+00]
nelec by numeric integration = 146.00000401268608
    CPU time for vxc     40.19 sec, wall time     17.09 sec
E1 = -4125.50599836114  Ecoul = 1907.2877851361723  Exc = -124.84571664648578
cycle= 13 E= -835.047465470067  delta_E= -7.46e-10  |g|= 2.14e-05  |ddm|= 0.000142
    CPU time for cycle= 13     40.78 sec, wall time     17.18 sec
  HOMO = -0.102607795642319  LUMO = -0.0409355955399433
  mo_energy =
[-1.00744558e+01 -1.00399124e+01 -1.00345027e+01 -1.00314306e+01
 -1.00301052e+01 -1.00294983e+01 -1.00283271e+01 -1.00273159e+01
 -1.00266573e+01 -1.00247001e+01 -1.00206615e+01 -1.00173343e+01
 -1.00147338e+01 -1.00137906e+01 -1.00121610e+01 -1.00121433e+01
 -1.00118509e+01 -1.00107013e+01 -1.00100203e+01 -1.00098555e+01
 -1.00038328e+01 -9.99962244e+00 -8.61834891e-01 -8.54384918e-01
 -8.34220521e-01 -7.88311744e-01 -7.68701428e-01 -7.63040255e-01
 -7.58270341e-01 -7.23903825e-01 -7.17409254e-01 -6.72516954e-01
 -6.62952773e-01 -6.47514855e-01 -6.21129066e-01 -5.97253361e-01
 -5.90212891e-01 -5.67350068e-01 -5.46907494e-01 -5.40518166e-01
 -5.11379552e-01 -4.96152631e-01 -4.80193844e-01 -4.68711005e-01
 -4.55061471e-01 -4.42433551e-01 -4.33125981e-01 -4.18921391e-01
 -4.10456171e-01 -4.02627100e-01 -3.93090041e-01 -3.86461108e-01
 -3.83647858e-01 -3.70718661e-01 -3.65855847e-01 -3.53828178e-01
 -3.43522869e-01 -3.33592018e-01 -3.26754269e-01 -3.18928224e-01
 -3.03419641e-01 -2.93007878e-01 -2.74076594e-01 -2.70013488e-01
 -2.58680880e-01 -2.47464127e-01 -2.45946546e-01 -2.21586399e-01
 -2.11413155e-01 -2.04037943e-01 -1.83048297e-01 -1.39290917e-01
 -1.02607796e-01 -4.09355955e-02  5.22072658e-04  6.66764914e-02
  7.88778561e-02  9.60045482e-02  1.15040711e-01  1.42942914e-01
  1.53696652e-01  1.90760682e-01  2.34972917e-01  2.40220502e-01
  2.66387491e-01  2.90194459e-01  2.94949591e-01  3.10291287e-01
  3.19491596e-01  3.23694621e-01  3.36192430e-01  3.64519262e-01
  3.82241986e-01  3.87891704e-01  3.95010255e-01  4.23453161e-01
  4.35121623e-01  4.40684508e-01  4.45922593e-01  4.49678962e-01
  4.63665790e-01  4.87142445e-01  4.98438782e-01  5.15004080e-01
  5.52917936e-01  5.70073337e-01  5.82737460e-01  5.87171672e-01
  6.43705468e-01  6.59402013e-01  6.69499316e-01  6.88215397e-01
  7.02020798e-01  7.34309105e-01  7.73112603e-01  7.81478471e-01
  7.89543301e-01  8.29391871e-01  8.35573045e-01  8.80739897e-01
  9.33385561e-01  9.42390917e-01  1.09396803e+00  1.42604088e+00]
nelec by numeric integration = 146.00000401268562
    CPU time for vxc     39.68 sec, wall time     16.76 sec
E1 = -4125.506055285248  Ecoul = 1907.287843119561  Exc = -124.84571770586564
cycle= 14 E= -835.047465470167  delta_E= -9.96e-11  |g|= 1.54e-05  |ddm|= 5.69e-05
    CPU time for cycle= 14     40.11 sec, wall time     16.83 sec
  HOMO = -0.102608263430799  LUMO = -0.0409359691947681
  mo_energy =
[-1.00744559e+01 -1.00399146e+01 -1.00345044e+01 -1.00314309e+01
 -1.00301061e+01 -1.00294959e+01 -1.00283305e+01 -1.00273147e+01
 -1.00266552e+01 -1.00247002e+01 -1.00206596e+01 -1.00173328e+01
 -1.00147319e+01 -1.00137924e+01 -1.00121599e+01 -1.00121423e+01
 -1.00118509e+01 -1.00107011e+01 -1.00100234e+01 -1.00098571e+01
 -1.00038316e+01 -9.99962225e+00 -8.61833970e-01 -8.54385471e-01
 -8.34221051e-01 -7.88312143e-01 -7.68700760e-01 -7.63040034e-01
 -7.58270477e-01 -7.23903662e-01 -7.17408768e-01 -6.72516980e-01
 -6.62953717e-01 -6.47514774e-01 -6.21129482e-01 -5.97253874e-01
 -5.90213464e-01 -5.67349444e-01 -5.46907295e-01 -5.40517590e-01
 -5.11379496e-01 -4.96152660e-01 -4.80193729e-01 -4.68711053e-01
 -4.55062059e-01 -4.42433411e-01 -4.33126070e-01 -4.18921501e-01
 -4.10456258e-01 -4.02627568e-01 -3.93089746e-01 -3.86461376e-01
 -3.83647849e-01 -3.70718040e-01 -3.65856058e-01 -3.53828201e-01
 -3.43523207e-01 -3.33591994e-01 -3.26754167e-01 -3.18927943e-01
 -3.03419828e-01 -2.93007702e-01 -2.74076351e-01 -2.70012730e-01
 -2.58680726e-01 -2.47464415e-01 -2.45946713e-01 -2.21586735e-01
 -2.11412505e-01 -2.04038241e-01 -1.83047676e-01 -1.39291055e-01
 -1.02608263e-01 -4.09359692e-02  5.21803237e-04  6.66757863e-02
  7.88784774e-02  9.60042733e-02  1.15040749e-01  1.42943723e-01
  1.53696810e-01  1.90761431e-01  2.34972718e-01  2.40221189e-01
  2.66387803e-01  2.90194562e-01  2.94949267e-01  3.10291072e-01
  3.19491302e-01  3.23695291e-01  3.36191793e-01  3.64519459e-01
  3.82242179e-01  3.87891601e-01  3.95009718e-01  4.23452901e-01
  4.35121505e-01  4.40684648e-01  4.45922498e-01  4.49678342e-01
  4.63666064e-01  4.87143014e-01  4.98437741e-01  5.15004100e-01
  5.52917532e-01  5.70072234e-01  5.82738559e-01  5.87171451e-01
  6.43705818e-01  6.59402010e-01  6.69499363e-01  6.88215763e-01
  7.02020566e-01  7.34309269e-01  7.73112502e-01  7.81478449e-01
  7.89543972e-01  8.29392331e-01  8.35571939e-01  8.80739364e-01
  9.33386279e-01  9.42389922e-01  1.09396957e+00  1.42604054e+00]
nelec by numeric integration = 146.0000040126872
    CPU time for vxc     40.80 sec, wall time     17.43 sec
E1 = -4125.506045953124  Ecoul = 1907.2878335761231  Exc = -124.84571749463151
cycle= 15 E= -835.047465470247  delta_E= -7.96e-11  |g|= 6.63e-06  |ddm|= 3.76e-05
    CPU time for cycle= 15     41.14 sec, wall time     17.49 sec
  HOMO = -0.102607919997917  LUMO = -0.0409356386981304
  mo_energy =
[-1.00744553e+01 -1.00399154e+01 -1.00345048e+01 -1.00314317e+01
 -1.00301050e+01 -1.00294972e+01 -1.00283300e+01 -1.00273157e+01
 -1.00266571e+01 -1.00247023e+01 -1.00206597e+01 -1.00173350e+01
 -1.00147331e+01 -1.00137894e+01 -1.00121608e+01 -1.00121432e+01
 -1.00118519e+01 -1.00107028e+01 -1.00100182e+01 -1.00098586e+01
 -1.00038328e+01 -9.99962203e+00 -8.61834629e-01 -8.54385485e-01
 -8.34220936e-01 -7.88312204e-01 -7.68701262e-01 -7.63040131e-01
 -7.58270895e-01 -7.23904199e-01 -7.17409190e-01 -6.72517539e-01
 -6.62952457e-01 -6.47515477e-01 -6.21129460e-01 -5.97253665e-01
 -5.90213667e-01 -5.67349867e-01 -5.46907523e-01 -5.40518047e-01
 -5.11380079e-01 -4.96152929e-01 -4.80193882e-01 -4.68710838e-01
 -4.55061704e-01 -4.42433763e-01 -4.33126332e-01 -4.18921797e-01
 -4.10456460e-01 -4.02627453e-01 -3.93090209e-01 -3.86461884e-01
 -3.83647940e-01 -3.70718598e-01 -3.65856297e-01 -3.53828608e-01
 -3.43523246e-01 -3.33592356e-01 -3.26754463e-01 -3.18928136e-01
 -3.03420087e-01 -2.93007772e-01 -2.74076564e-01 -2.70013331e-01
 -2.58681016e-01 -2.47464517e-01 -2.45946988e-01 -2.21586653e-01
 -2.11413090e-01 -2.04038618e-01 -1.83048155e-01 -1.39291454e-01
 -1.02607920e-01 -4.09356387e-02  5.21473809e-04  6.66754128e-02
  7.88777611e-02  9.60040613e-02  1.15040645e-01  1.42943186e-01
  1.53696693e-01  1.90761006e-01  2.34972357e-01  2.40220381e-01
  2.66387291e-01  2.90194328e-01  2.94949405e-01  3.10291046e-01
  3.19491867e-01  3.23694557e-01  3.36191884e-01  3.64519581e-01
  3.82241703e-01  3.87891226e-01  3.95009563e-01  4.23452755e-01
  4.35121260e-01  4.40684151e-01  4.45922240e-01  4.49678223e-01
  4.63665701e-01  4.87142509e-01  4.98437834e-01  5.15004114e-01
  5.52917215e-01  5.70072459e-01  5.82737460e-01  5.87170843e-01
  6.43705632e-01  6.59401815e-01  6.69498942e-01  6.88215384e-01
  7.02020389e-01  7.34308897e-01  7.73111855e-01  7.81477867e-01
  7.89542920e-01  8.29391876e-01  8.35573321e-01  8.80739235e-01
  9.33385627e-01  9.42391037e-01  1.09396891e+00  1.42604089e+00]
nelec by numeric integration = 146.0000040126843
    CPU time for vxc     39.25 sec, wall time     16.38 sec
E1 = -4125.506046292445  Ecoul = 1907.2878345440115  Exc = -124.84571812295431
Extra cycle  E= -835.047465470002  delta_E= 2.45e-10  |g|= 2.52e-05  |ddm|= 6.14e-05
    CPU time for scf_cycle    672.93 sec, wall time    276.51 sec
    CPU time for SCF    672.93 sec, wall time    276.51 sec
converged SCF energy = -835.047465470002
nelec by numeric integration = 146.0000040126843
    CPU time for vxc     38.78 sec, wall time     16.40 sec
 ** Mulliken pop  **
pop of  0 C 1s            1.99129
pop of  0 C 2s            1.11014
pop of  0 C 2px           0.98583
pop of  0 C 2py           1.00330
pop of  0 C 2pz           0.93651
pop of  1 C 1s            1.99085
pop of  1 C 2s            1.15273
pop of  1 C 2px           0.95781
pop of  1 C 2py           0.94795
pop of  1 C 2pz           0.94332
pop of  2 C 1s            1.99154
pop of  2 C 2s            1.03640
pop of  2 C 2px           1.00862
pop of  2 C 2py           1.03523
pop of  2 C 2pz           0.99403
pop of  3 C 1s            1.99131
pop of  3 C 2s            1.16413
pop of  3 C 2px           0.99365
pop of  3 C 2py           0.93597
pop of  3 C 2pz           1.01040
pop of  4 C 1s            1.99089
pop of  4 C 2s            1.09772
pop of  4 C 2px           1.00854
pop of  4 C 2py           0.99397
pop of  4 C 2pz           1.04170
pop of  5 C 1s            1.99163
pop of  5 C 2s            1.19602
pop of  5 C 2px           0.96850
pop of  5 C 2py           0.91725
pop of  5 C 2pz           0.97636
pop of  6 C 1s            1.99128
pop of  6 C 2s            1.13449
pop of  6 C 2px           0.98476
pop of  6 C 2py           0.99557
pop of  6 C 2pz           0.95928
pop of  7 C 1s            1.99098
pop of  7 C 2s            1.16860
pop of  7 C 2px           0.97633
pop of  7 C 2py           0.97304
pop of  7 C 2pz           0.94549
pop of  8 C 1s            1.99080
pop of  8 C 2s            1.14566
pop of  8 C 2px           0.97798
pop of  8 C 2py           0.94107
pop of  8 C 2pz           0.94430
pop of  9 C 1s            1.99114
pop of  9 C 2s            1.17476
pop of  9 C 2px           0.96986
pop of  9 C 2py           0.95477
pop of  9 C 2pz           0.92574
pop of  10 C 1s           1.99109
pop of  10 C 2s           1.13704
pop of  10 C 2px          0.98560
pop of  10 C 2py          0.95537
pop of  10 C 2pz          0.99973
pop of  11 C 1s           1.99101
pop of  11 C 2s           1.15333
pop of  11 C 2px          1.00289
pop of  11 C 2py          0.95399
pop of  11 C 2pz          0.96034
pop of  12 C 1s           1.99063
pop of  12 C 2s           1.09193
pop of  12 C 2px          0.98915
pop of  12 C 2py          0.98355
pop of  12 C 2pz          0.96532
pop of  13 C 1s           1.99063
pop of  13 C 2s           1.13640
pop of  13 C 2px          0.98221
pop of  13 C 2py          0.94127
pop of  13 C 2pz          0.93371
pop of  14 C 1s           1.99164
pop of  14 C 2s           1.16385
pop of  14 C 2px          1.00007
pop of  14 C 2py          0.93637
pop of  14 C 2pz          1.02047
pop of  15 C 1s           1.99116
pop of  15 C 2s           1.11686
pop of  15 C 2px          1.02424
pop of  15 C 2py          0.95589
pop of  15 C 2pz          1.04518
pop of  16 C 1s           1.99059
pop of  16 C 2s           1.10535
pop of  16 C 2px          0.97308
pop of  16 C 2py          0.97061
pop of  16 C 2pz          0.95731
pop of  17 C 1s           1.99043
pop of  17 C 2s           1.10476
pop of  17 C 2px          1.00909
pop of  17 C 2py          0.95013
pop of  17 C 2pz          0.95328
pop of  18 C 1s           1.99112
pop of  18 C 2s           1.19459
pop of  18 C 2px          0.98549
pop of  18 C 2py          0.93101
pop of  18 C 2pz          0.96623
pop of  19 C 1s           1.99111
pop of  19 C 2s           1.18323
pop of  19 C 2px          0.92314
pop of  19 C 2py          0.92402
pop of  19 C 2pz          0.97362
pop of  20 C 1s           1.99132
pop of  20 C 2s           1.19911
pop of  20 C 2px          0.91440
pop of  20 C 2py          0.96497
pop of  20 C 2pz          0.93959
pop of  21 C 1s           1.99313
pop of  21 C 2s           0.98218
pop of  21 C 2px          1.08628
pop of  21 C 2py          1.09535
pop of  21 C 2pz          1.10447
pop of  22 H 1s           0.96674
pop of  23 H 1s           0.88751
pop of  24 H 1s           0.89355
pop of  25 H 1s           0.90092
pop of  26 H 1s           0.93726
pop of  27 H 1s           0.90733
pop of  28 H 1s           0.91142
pop of  29 H 1s           0.94928
pop of  30 H 1s           0.88680
pop of  31 H 1s           0.87725
pop of  32 H 1s           0.90432
pop of  33 H 1s           0.91654
pop of  34 H 1s           0.95924
pop of  35 H 1s           0.88240
 ** Mulliken atomic charges  **
charge of    0C =     -0.02708
charge of    1C =      0.00734
charge of    2C =     -0.06581
charge of    3C =     -0.09547
charge of    4C =     -0.13283
charge of    5C =     -0.04977
charge of    6C =     -0.06538
charge of    7C =     -0.05444
charge of    8C =      0.00018
charge of    9C =     -0.01628
charge of   10C =     -0.06883
charge of   11C =     -0.06155
charge of   12C =     -0.02059
charge of   13C =      0.01577
charge of   14C =     -0.11240
charge of   15C =     -0.13333
charge of   16C =      0.00306
charge of   17C =     -0.00769
charge of   18C =     -0.06843
charge of   19C =      0.00488
charge of   20C =     -0.00939
charge of   21C =     -0.26140
charge of   22H =      0.03326
charge of   23H =      0.11249
charge of   24H =      0.10645
charge of   25H =      0.09908
charge of   26H =      0.06274
charge of   27H =      0.09267
charge of   28H =      0.08858
charge of   29H =      0.05072
charge of   30H =      0.11320
charge of   31H =      0.12275
charge of   32H =      0.09568
charge of   33H =      0.08346
charge of   34H =      0.04076
charge of   35H =      0.11760
Dipole moment(X, Y, Z, Debye): -0.16841,  1.04885,  0.13391
nelec by numeric integration = 146.0000040126843
    CPU time for vxc     38.96 sec, wall time     16.76 sec
E1 = -4125.506046292445  Ecoul = 1907.2878345440115  Exc = -124.8457181229543
nelec by numeric integration = 146.0000040126843
    CPU time for vxc     39.45 sec, wall time     16.64 sec
E1 = -4125.506046292445  Ecoul = 1907.2878345440117  Exc = -124.8457181229543
