System: uname_result(system='Linux', node='cosmopc18', release='5.15.0-97-generic', version='#107-Ubuntu SMP Wed Feb 7 13:26:48 UTC 2024', machine='x86_64')  Threads 4
Python 3.11.8 (main, Feb 26 2024, 21:39:34) [GCC 11.2.0]
numpy 1.26.4  scipy 1.11.4
Date: Tue Apr  9 15:33:19 2024
PySCF version 2.3.0
PySCF path  /home/saade/miniconda3/envs/tutorial/lib/python3.11/site-packages/pyscf

[ENV] PYSCFAD_BACKEND torch
[CONFIG] conf_file None
[INPUT] verbose = 5
[INPUT] max_memory = 4000 
[INPUT] num. atoms = 36
[INPUT] num. electrons = 146
[INPUT] charge = 0
[INPUT] spin (= nelec alpha-beta = 2S) = 0
[INPUT] symmetry False subgroup None
[INPUT] Mole.unit = angstrom
[INPUT] Symbol           X                Y                Z      unit          X                Y                Z       unit  Magmom
[INPUT]  1 C     -0.091390000000   3.765779000000   0.686875000000 AA   -0.172702070524   7.116290955638   1.298005631811 Bohr   0.0
[INPUT]  2 C      0.120258000000   3.542382000000  -1.016502000000 AA    0.227254684288   6.694131808589  -1.920910385073 Bohr   0.0
[INPUT]  3 C      0.100836000000   4.784623000000   1.485026000000 AA    0.190552423497   9.041627079295   2.806292427858 Bohr   0.0
[INPUT]  4 C     -0.099038000000   2.531336000000   1.295927000000 AA   -0.187154695925   4.783531769252   2.448947107429 Bohr   0.0
[INPUT]  5 C      0.012365000000   4.998698000000  -1.341112000000 AA    0.023366463530   9.446170199411  -2.534334382368 Bohr   0.0
[INPUT]  6 C      0.117913000000   2.439660000000  -1.392408000000 AA    0.222823276526   4.610289237056  -2.631269773653 Bohr   0.0
[INPUT]  7 C      0.121225000000   6.271523000000  -0.702071000000 AA    0.229082049450  11.851460853911  -1.326721910000 Bohr   0.0
[INPUT]  8 C      0.038145000000   6.061423000000   0.554378000000 AA    0.072083603022  11.454429395140   1.047622589484 Bohr   0.0
[INPUT]  9 C     -0.077952000000   1.168806000000   0.906792000000 AA   -0.147307930862   2.208723232748   1.713588531947 Bohr   0.0
[INPUT] 10 C     -0.073866000000   1.000083000000  -0.778439000000 AA   -0.139586509917   1.889882971833  -1.471036514680 Bohr   0.0
[INPUT] 11 C      0.037705000000   0.086092000000   1.410924000000 AA    0.071252123527   0.162690301516   2.666259942576 Bohr   0.0
[INPUT] 12 C     -0.149891000000  -0.124396000000  -1.330031000000 AA   -0.283252938537  -0.235074370991  -2.513394327181 Bohr   0.0
[INPUT] 13 C     -0.031144000000  -1.174270000000   0.692043000000 AA   -0.058853630423  -2.219048696293   1.307771736422 Bohr   0.0
[INPUT] 14 C     -0.010431000000  -1.203569000000  -0.754532000000 AA   -0.019711733205  -2.274415782017  -1.425858832220 Bohr   0.0
[INPUT] 15 C     -0.047387000000  -2.518647000000   1.290247000000 AA   -0.089548451865  -4.759553034457   2.438213463042 Bohr   0.0
[INPUT] 16 C     -0.086795000000  -2.331402000000  -1.205998000000 AA   -0.164018778982  -4.405711266263  -2.279005926773 Bohr   0.0
[INPUT] 17 C      0.046693000000  -3.605394000000   0.778981000000 AA    0.088236981934  -6.813207231150   1.472060746240 Bohr   0.0
[INPUT] 18 C      0.039939000000  -3.468483000000  -0.784591000000 AA    0.075473771689  -6.554482937710  -1.482662109799 Bohr   0.0
[INPUT] 19 C      0.099023000000  -4.994013000000   1.338704000000 AA    0.187126350033  -9.437316832518   2.529783921860 Bohr   0.0
[INPUT] 20 C     -0.119462000000  -5.104927000000  -1.161424000000 AA   -0.225750462293  -9.646913915898  -2.194773274497 Bohr   0.0
[INPUT] 21 C     -0.104993000000  -5.983017000000   0.683930000000 AA   -0.198408014996 -11.306263528617   1.292440388374 Bohr   0.0
[INPUT] 22 C     -0.158605000000  -6.048061000000  -0.575348000000 AA   -0.299720011987 -11.429178874663  -1.087250146316 Bohr   0.0
[INPUT] 23 H     -0.020622000000   4.881051000000   2.456548000000 AA   -0.038969932141   9.223849590034   4.642202931848 Bohr   0.0
[INPUT] 24 H     -0.012958000000   2.423646000000   2.363576000000 AA   -0.024487071122   4.580027162898   4.466511314595 Bohr   0.0
[INPUT] 25 H     -0.015647000000   5.003457000000  -2.337242000000 AA   -0.029568544671   9.455163406038  -4.416747266831 Bohr   0.0
[INPUT] 26 H      0.146160000000   2.351401000000  -2.324587000000 AA    0.276202370366   4.443503899028  -4.392832782724 Bohr   0.0
[INPUT] 27 H     -0.076719000000   7.032435000000  -1.321001000000 AA   -0.144977898551  13.289376138806  -2.496330100277 Bohr   0.0
[INPUT] 28 H     -0.077526000000   7.054177000000   1.282373000000 AA   -0.146502907533  13.330462564206   2.423333759537 Bohr   0.0
[INPUT] 29 H     -0.032190000000   0.020303000000   2.441849000000 AA   -0.060830283950   0.038367109507   4.614425847543 Bohr   0.0
[INPUT] 30 H     -0.003143000000  -0.224353000000  -2.270934000000 AA   -0.005939409210  -0.423965725225  -4.291443306963 Bohr   0.0
[INPUT] 31 H      0.000966000000  -2.501631000000   2.604688000000 AA    0.001825475436  -4.727397454722   4.922146959941 Bohr   0.0
[INPUT] 32 H      0.151896000000  -2.348328000000  -2.516929000000 AA    0.287041839417  -4.437696770648  -4.756306484975 Bohr   0.0
[INPUT] 33 H     -0.304990000000  -4.903014000000   2.559082000000 AA   -0.576347570731  -9.265353644908   4.835964110304 Bohr   0.0
[INPUT] 34 H      0.114921000000  -4.767684000000  -2.546060000000 AA    0.217169215961  -9.009617008471  -4.811356096710 Bohr   0.0
[INPUT] 35 H     -0.083178000000  -7.110544000000   1.241979000000 AA   -0.157183639589 -13.436980756669   2.347000162461 Bohr   0.0
[INPUT] 36 H      0.320097000000  -7.054042000000  -1.259295000000 AA    0.604895663295 -13.330207451179  -2.379722660034 Bohr   0.0
[INPUT] ---------------- BASIS SET ---------------- 
[INPUT] l, kappa, [nprim/nctr], expnt,             c_1 c_2 ...
[INPUT] H
[INPUT] 0    0    [3    /1   ]  3.42525091        0.15432897
                                0.62391373        0.53532814
                                0.1688554         0.44463454
[INPUT] C
[INPUT] 0    0    [3    /1   ]  71.616837         0.15432897
                                13.045096         0.53532814
                                3.5305122         0.44463454
[INPUT] 0    0    [3    /1   ]  2.9412494         -0.09996723
                                0.6834831         0.39951283
                                0.2222899         0.70011547
[INPUT] 1    0    [3    /1   ]  2.9412494         0.15591627
                                0.6834831         0.60768372
                                0.2222899         0.39195739

nuclear repulsion = 1514.89335109022
number of shells = 80
number of NR pGTOs = 372
number of NR cGTOs = 124
basis = sto3g
ecp = {}
CPU time:     51410.42
atom C rad-grids = 99, ang-grids = [ 50  50  50  50  50  50  50  50  50  50  50  50  50  50  50  50  50  50
  50  50  50  50  50  50  50  50  50  50  50  50  50  86  86  86  86  86
  86  86  86  86  86  86  86 434 434 434 434 434 434 434 434 434 590 590
 590 590 590 590 590 590 590 590 590 590 590 590 590 590 590 590 590 590
 590 590 590 590 590 590 590 434 434 434 434 434 434 434 434 434 434 434
 434 434 434 434 434 434 434 434 434]
atom H rad-grids = 99, ang-grids = [ 50  50  50  50  50  50  50  50  50  50  50  50  50  50  50  50  50  50
  50  50  50  50  50  50  50  50  50  50  86  86  86  86  86  86  86 434
 434 434 434 434 434 434 434 590 590 590 590 590 590 590 590 590 590 590
 590 590 590 590 590 590 590 590 590 590 590 590 590 590 590 434 434 434
 434 434 434 434 434 434 434 434 434 434 434 434 434 434 434 434 434 434
 434 434 434 434 434 434 434 434 434]
tot_boxes 5270, boxes in each direction [ 8 29 15]
Padding 0 grids
tot grids = 1157832


******** <class 'pyscf.dft.rks.RKS'> ********
method = RKS
initial guess = minao
damping factor = 0
level_shift factor = 0
DIIS = <class 'pyscf.scf.diis.CDIIS'>
diis_start_cycle = 1
diis_space = 8
SCF conv_tol = 1e-10
SCF conv_tol_grad = None
SCF max_cycles = 50
direct_scf = True
direct_scf_tol = 1e-13
chkfile to save SCF result = /home/saade/mlelec/tutorials/tmpxcwpozht
max_memory 4000 MB (current use 690 MB)
XC library pyscf.dft.libxc version 6.1.0
    S. Lehtola, C. Steigemann, M. J.T. Oliveira, and M. A.L. Marques.,  SoftwareX 7, 1–5 (2018)
XC functionals = b3lypg
    P. J. Stephens, F. J. Devlin, C. F. Chabalowski, and M. J. Frisch.,  J. Phys. Chem. 98, 11623 (1994)
radial grids: 
    Treutler-Ahlrichs [JCP 102, 346 (1995); DOI:10.1063/1.469408] (M4) radial grids
    
becke partition: Becke, JCP 88, 2547 (1988); DOI:10.1063/1.454033
pruning grids: <function nwchem_prune at 0x7f9db5616ca0>
grids dens level: 3
symmetrized grids: False
atomic radii adjust function: <function treutler_atomic_radii_adjust at 0x7f9db5617380>
User specified grid scheme (99, 590)
small_rho_cutoff = 1e-07
Set gradient conv threshold to 1e-05
Initial guess from minao.
nelec by numeric integration = 145.27460855792867
    CPU time for vxc     37.11 sec, wall time     15.71 sec
E1 = -4128.327732054364  Ecoul = 1897.3548092745048  Exc = -126.52171804714885
init E= -842.601289736792
cond(S) = 30.987961234283265
    CPU time for initialize scf     47.50 sec, wall time     18.17 sec
  HOMO = -0.210008180668215  LUMO = -0.154837336590238
  mo_energy =
[-10.16769587 -10.16472756 -10.16088321 -10.1500908  -10.14894997
 -10.1376087  -10.13256939 -10.12370103 -10.1191436  -10.11914103
 -10.11663279 -10.1144812  -10.10815355 -10.10521511 -10.10298304
 -10.10224639 -10.10071229 -10.09933024 -10.09895683 -10.09355914
 -10.08951861 -10.08242033  -1.14655808  -1.10315881  -1.06144575
  -1.02398845  -1.00369036  -0.97827916  -0.94564129  -0.92729168
  -0.8816955   -0.86821846  -0.8177825   -0.78171693  -0.75916651
  -0.71727222  -0.69235177  -0.68082311  -0.6585486   -0.64696502
  -0.61108476  -0.59139424  -0.58017137  -0.57693326  -0.5461391
  -0.54058596  -0.53640821  -0.51638424  -0.51271333  -0.5102084
  -0.49022933  -0.48456641  -0.47587228  -0.46509926  -0.45788405
  -0.44440807  -0.43580998  -0.42226561  -0.40693552  -0.40510983
  -0.39458409  -0.37511654  -0.36790911  -0.35101173  -0.34368335
  -0.33642287  -0.32741467  -0.32115907  -0.28662783  -0.27779728
  -0.27333796  -0.25149541  -0.21000818  -0.15483734  -0.09687369
  -0.08220456  -0.03070013  -0.01282817   0.01307584   0.02743068
   0.04566156   0.05427613   0.06264222   0.08158746   0.08835157
   0.11241464   0.11537561   0.13418976   0.15180155   0.1604725
   0.16687899   0.18263184   0.20160997   0.22561817   0.2392458
   0.2460843    0.26688584   0.27669834   0.28515394   0.32215287
   0.33445688   0.35462958   0.4046393    0.42209398   0.44831324
   0.46304418   0.47655949   0.49513061   0.50716806   0.5394036
   0.56976674   0.58573491   0.62519141   0.6514175    0.67868464
   0.68953721   0.71758596   0.75148678   0.8000964    0.8188523
   0.8430432    0.88552268   0.91291687   1.01150577]
nelec by numeric integration = 146.00000297155293
    CPU time for vxc     38.19 sec, wall time     15.89 sec
E1 = -4142.99811453801  Ecoul = 1918.036609703204  Exc = -125.0969884043085
cycle= 1 E= -835.165142148898  delta_E= 7.44  |g|= 0.335  |ddm|= 9.49
    CPU time for cycle= 1     38.47 sec, wall time     15.94 sec
  HOMO = -0.110279531445496  LUMO = -0.0156158179442382
  mo_energy =
[-10.09628667 -10.07380422 -10.07343975 -10.06312968 -10.0220535
 -10.01212876 -10.00789872  -9.98981866  -9.9852308   -9.98113304
  -9.97570348  -9.97466995  -9.9713433   -9.97065066  -9.96912265
  -9.96336235  -9.95422402  -9.95039799  -9.94749299  -9.92704003
  -9.92650076  -9.9088542   -0.85497856  -0.84460921  -0.82808611
  -0.79658406  -0.76607664  -0.75256516  -0.73710713  -0.70676054
  -0.68583349  -0.67029613  -0.65973125  -0.62014604  -0.58727034
  -0.56863389  -0.55887374  -0.53305277  -0.51651307  -0.51334415
  -0.48924951  -0.46960104  -0.4591178   -0.44514735  -0.43879604
  -0.42163585  -0.41790895  -0.41281686  -0.39653008  -0.38403518
  -0.36923525  -0.36275136  -0.36015978  -0.34640758  -0.34253026
  -0.32602408  -0.31707696  -0.30628424  -0.29262412  -0.28732499
  -0.27792479  -0.27034841  -0.2629474   -0.24995954  -0.24342816
  -0.23215572  -0.22545534  -0.20131845  -0.1734167   -0.15801715
  -0.1524282   -0.13888425  -0.11027953  -0.01561582   0.06482779
   0.08251936   0.11592476   0.13539298   0.13884531   0.17153689
   0.19802077   0.2175652    0.22282922   0.23780436   0.25541085
   0.25814213   0.27121692   0.28013777   0.29386023   0.30635191
   0.31929797   0.34148671   0.35428009   0.37848041   0.39263917
   0.40166391   0.43298682   0.44333134   0.46752127   0.49449494
   0.510146     0.52364943   0.53423669   0.55496015   0.56861351
   0.57935809   0.60339514   0.6330638    0.68024913   0.70575205
   0.73281566   0.76885941   0.79171285   0.81636754   0.83569705
   0.86231864   0.88634014   0.94297734   1.00193127   1.0240295
   1.04030006   1.06093179   1.12222294   1.19215245]
nelec by numeric integration = 146.00000306024424
    CPU time for vxc     38.74 sec, wall time     16.13 sec
E1 = -4135.371328054199  Ecoul = 1910.3443236268913  Exc = -124.93540085607636
cycle= 2 E= -835.069054193168  delta_E= 0.0961  |g|= 0.576  |ddm|= 1.57
    CPU time for cycle= 2     39.09 sec, wall time     16.19 sec
  HOMO = -0.107065792284685  LUMO = -0.0160358408081767
  mo_energy =
[-10.03244803 -10.03169247 -10.03096771 -10.02935712 -10.02891376
 -10.02886255 -10.0258219  -10.02392963 -10.01924962 -10.01766477
 -10.01731846 -10.01458407 -10.01304875 -10.00844058 -10.00790635
 -10.00545879 -10.00231834  -9.99945494  -9.99574392  -9.98985553
  -9.98810981  -9.95500502  -0.88201242  -0.86748101  -0.82860331
  -0.80522197  -0.78983395  -0.76873871  -0.75466201  -0.73720003
  -0.70704355  -0.69395327  -0.661731    -0.62418874  -0.61198321
  -0.58220541  -0.55970138  -0.55463452  -0.53547538  -0.52929451
  -0.49853151  -0.4828177   -0.46926419  -0.46345416  -0.44141654
  -0.43717475  -0.42843967  -0.42468365  -0.41459423  -0.39644234
  -0.38724431  -0.38518533  -0.37881799  -0.36548727  -0.35649775
  -0.34435393  -0.3373375   -0.32776272  -0.31162307  -0.30008822
  -0.29497823  -0.28193988  -0.27247495  -0.25802777  -0.25299107
  -0.24568195  -0.23864874  -0.2268664   -0.1889723   -0.18628153
  -0.17540618  -0.16508339  -0.10706579  -0.01603584   0.04179355
   0.05736592   0.1146782    0.11910236   0.14110486   0.1701113
   0.1946106    0.19592178   0.20092697   0.2240659    0.23228964
   0.2460178    0.25697522   0.28103064   0.29413352   0.29827396
   0.31006869   0.31840248   0.3517247    0.36363829   0.38098365
   0.39107028   0.40518587   0.4185849    0.43505709   0.45118922
   0.47103791   0.49677436   0.53618091   0.55648534   0.5774897
   0.59794334   0.6232222    0.63501625   0.64143327   0.69386416
   0.72553426   0.74733683   0.76358003   0.78093898   0.82920938
   0.84647693   0.85712019   0.90687787   0.95716637   0.97243763
   1.00713401   1.05206122   1.07513397   1.16119299]
nelec by numeric integration = 146.00000296862115
    CPU time for vxc     38.49 sec, wall time     15.94 sec
E1 = -4138.943646787869  Ecoul = 1913.844051517813  Exc = -124.9673450167411
cycle= 3 E= -835.173589196581  delta_E= -0.105  |g|= 0.305  |ddm|= 1.54
    CPU time for cycle= 3     38.86 sec, wall time     16.00 sec
  HOMO = -0.111244589753515  LUMO = -0.0271739020511199
  mo_energy =
[-10.04888286 -10.04653953 -10.03948932 -10.03676631 -10.03581192
 -10.03176761 -10.02864677 -10.02553094 -10.02427089 -10.02372775
 -10.02184621 -10.02093218 -10.02040478 -10.02019723 -10.01897668
 -10.01641552 -10.01638076 -10.01570006 -10.01419599 -10.01258033
 -10.00033446  -9.99481071  -0.89253374  -0.87856587  -0.83456794
  -0.81396726  -0.79336605  -0.78523071  -0.75712429  -0.74535489
  -0.71564687  -0.69849223  -0.66246561  -0.6404548   -0.6190016
  -0.589785    -0.56342203  -0.56170377  -0.5391791   -0.53490231
  -0.50465047  -0.48794807  -0.47406844  -0.47068074  -0.44776159
  -0.44188012  -0.43392015  -0.42855     -0.42097347  -0.40487864
  -0.40278252  -0.39235595  -0.37997485  -0.37146754  -0.3615591
  -0.34810614  -0.34295376  -0.33339787  -0.31667644  -0.30357111
  -0.30206769  -0.2880932   -0.28160186  -0.26395702  -0.26017737
  -0.25047126  -0.24552134  -0.23286889  -0.19529608  -0.19316571
  -0.18045989  -0.1689955   -0.11124459  -0.0271739    0.03678145
   0.05090817   0.10727347   0.11584035   0.13497403   0.16122648
   0.18382018   0.19081773   0.19536482   0.2195601    0.22731915
   0.24192827   0.2570844    0.2733385    0.28840393   0.29223306
   0.3014028    0.30857846   0.3448636    0.35958318   0.37794109
   0.37839045   0.39842105   0.41369029   0.43000368   0.4611433
   0.47627436   0.49619304   0.54489834   0.55196612   0.56866727
   0.59572114   0.60230901   0.61205618   0.64477887   0.68035654
   0.70745058   0.73572075   0.77230026   0.78744232   0.81671662
   0.83504014   0.84553214   0.89303188   0.94861213   0.96999371
   0.99628366   1.02903165   1.0612644    1.14912583]
nelec by numeric integration = 146.0000030368577
    CPU time for vxc     38.19 sec, wall time     15.85 sec
E1 = -4139.278593388604  Ecoul = 1914.1598925413575  Exc = -124.98657533819912
cycle= 4 E= -835.21192509523  delta_E= -0.0383  |g|= 0.0597  |ddm|= 0.65
    CPU time for cycle= 4     38.79 sec, wall time     15.94 sec
  HOMO = -0.117443169215679  LUMO = -0.0308269168804562
  mo_energy =
[-10.04372822 -10.04283667 -10.03862132 -10.034984   -10.03207098
 -10.03172372 -10.0296797  -10.02923493 -10.02641343 -10.02628375
 -10.02577553 -10.02307804 -10.02168171 -10.02056472 -10.0204865
 -10.01971912 -10.01937827 -10.01774179 -10.01755483 -10.01555861
 -10.01362302 -10.00574057  -0.8879962   -0.87429967  -0.83794886
  -0.8156004   -0.79480285  -0.7876355   -0.7625695   -0.74398761
  -0.7130803   -0.69891477  -0.66614342  -0.64323914  -0.61814073
  -0.58836988  -0.56535634  -0.56270649  -0.53901095  -0.53797288
  -0.50461577  -0.48739689  -0.4749067   -0.47087614  -0.4512126
  -0.44032308  -0.43498538  -0.43218991  -0.42063662  -0.40506262
  -0.40124928  -0.3900877   -0.38305959  -0.37479029  -0.36255058
  -0.35146587  -0.34601581  -0.33099497  -0.3162622   -0.30703678
  -0.30155939  -0.2880257   -0.28326909  -0.2657474   -0.26434758
  -0.25373767  -0.24736429  -0.23349344  -0.19816121  -0.19271602
  -0.17957449  -0.16930013  -0.11744317  -0.03082692   0.03639045
   0.05145222   0.10661676   0.11453263   0.13353472   0.15909567
   0.18188034   0.1912058    0.19514935   0.21986821   0.22420094
   0.2434142    0.25501659   0.27108608   0.28170595   0.29201677
   0.29904573   0.30968428   0.34740758   0.36127717   0.37167892
   0.37804288   0.4013821    0.41364306   0.42916159   0.45768468
   0.47226204   0.4953795    0.53880684   0.54970294   0.56644427
   0.59333576   0.59902302   0.61003701   0.64054578   0.68369722
   0.70901856   0.73982201   0.76516219   0.77901286   0.820611
   0.83056689   0.84310271   0.89782979   0.95088398   0.9679817
   1.0003076    1.02898445   1.06662517   1.15282997]
nelec by numeric integration = 146.00000302227488
    CPU time for vxc     38.40 sec, wall time     15.92 sec
E1 = -4139.287123250136  Ecoul = 1914.167569265475  Exc = -124.98687997769225
cycle= 5 E= -835.213082872137  delta_E= -0.00116  |g|= 0.023  |ddm|= 0.13
    CPU time for cycle= 5     38.89 sec, wall time     16.00 sec
  HOMO = -0.115894673248763  LUMO = -0.0286225749332793
  mo_energy =
[-10.0433178  -10.04100456 -10.03879823 -10.03508084 -10.0336836
 -10.03083309 -10.02858542 -10.02841062 -10.02537148 -10.02367645
 -10.02216294 -10.02090031 -10.02077011 -10.02050082 -10.02044233
 -10.01987995 -10.0182335  -10.01565338 -10.01434777 -10.01357742
 -10.01159516 -10.00277834  -0.88924784  -0.8741679   -0.83630959
  -0.81455436  -0.79406717  -0.78653248  -0.76008946  -0.7437307
  -0.7126684   -0.69902144  -0.66454501  -0.64200898  -0.61829616
  -0.58772548  -0.56411018  -0.56243521  -0.53828316  -0.53721443
  -0.50413023  -0.48723354  -0.47364565  -0.47103845  -0.44954029
  -0.44011762  -0.43356722  -0.43133966  -0.42055786  -0.40419096
  -0.40184741  -0.39041102  -0.38163598  -0.37319948  -0.36253075
  -0.35014471  -0.34482081  -0.33107591  -0.31608349  -0.30563509
  -0.30103935  -0.28749367  -0.28249411  -0.26477717  -0.26252952
  -0.25215792  -0.24704907  -0.23298505  -0.19705064  -0.19206016
  -0.18023724  -0.16957151  -0.11589467  -0.02862257   0.03626467
   0.0521553    0.1074206    0.11544728   0.13421899   0.16010966
   0.18283306   0.19103274   0.19565591   0.22027092   0.22549113
   0.24374357   0.255518     0.27209518   0.28466934   0.29268911
   0.3003809    0.30936309   0.34664793   0.36158349   0.37449011
   0.37830269   0.4015441    0.41385552   0.42971885   0.45923669
   0.47410341   0.4957165    0.54134307   0.5507208    0.56738597
   0.59480805   0.60074524   0.61112692   0.64254776   0.68185465
   0.7085861    0.73836464   0.76794986   0.78227168   0.82171623
   0.83283526   0.84309111   0.89776848   0.9512275    0.96945886
   0.9986523    1.02908687   1.06459677   1.15364291]
nelec by numeric integration = 146.00000302401318
    CPU time for vxc     37.79 sec, wall time     15.81 sec
E1 = -4139.240240941175  Ecoul = 1914.1174947720503  Exc = -124.98386708747358
cycle= 6 E= -835.213262166382  delta_E= -0.000179  |g|= 0.00906  |ddm|= 0.0501
    CPU time for cycle= 6     38.20 sec, wall time     15.88 sec
  HOMO = -0.115682488657736  LUMO = -0.0281660954751385
  mo_energy =
[-10.04216431 -10.04204327 -10.03729475 -10.0341668  -10.033849
 -10.03169619 -10.02776295 -10.0260929  -10.02501374 -10.02254433
 -10.02129476 -10.0210879  -10.02086427 -10.01925386 -10.01913047
 -10.01891761 -10.01885414 -10.01672711 -10.01423782 -10.01383468
 -10.01238066 -10.00273653  -0.88871654  -0.87440973  -0.83584845
  -0.81411903  -0.79374076  -0.78591459  -0.7600033   -0.7437066
  -0.71287498  -0.6983442   -0.66422932  -0.64155156  -0.61782914
  -0.5878925   -0.56372541  -0.56198759  -0.53784498  -0.53707418
  -0.50390821  -0.487012    -0.47379013  -0.47037055  -0.44933314
  -0.4402249   -0.43320408  -0.43132705  -0.42027908  -0.40364157
  -0.40158807  -0.39021384  -0.38159218  -0.37298107  -0.3618375
  -0.34987314  -0.34452399  -0.33131895  -0.31605841  -0.30543038
  -0.30101011  -0.28743458  -0.28225872  -0.2645041   -0.26243113
  -0.2520093   -0.24669953  -0.23287304  -0.19654673  -0.19220643
  -0.17981433  -0.1691117   -0.11568249  -0.0281661    0.03688088
   0.05204329   0.10776685   0.11546855   0.13431318   0.16046304
   0.18340895   0.19141994   0.19568943   0.22024892   0.22588059
   0.24362275   0.25602159   0.27244663   0.28493415   0.29245904
   0.30068617   0.30966165   0.34700162   0.36134636   0.37455483
   0.37887647   0.40123508   0.41425233   0.43003091   0.45911643
   0.47400309   0.49597434   0.54135098   0.55110087   0.56774015
   0.59499596   0.60101073   0.6117636    0.64248938   0.68305077
   0.70941704   0.73919633   0.76793828   0.78222566   0.82098556
   0.83338735   0.8439615    0.89752946   0.95128379   0.96955164
   0.99943234   1.03008141   1.06537835   1.15306882]
nelec by numeric integration = 146.00000302497276
    CPU time for vxc     37.88 sec, wall time     15.75 sec
E1 = -4139.218617799446  Ecoul = 1914.0957874988164  Exc = -124.98381600089928
cycle= 7 E= -835.213295211313  delta_E= -3.3e-05  |g|= 0.00189  |ddm|= 0.0163
    CPU time for cycle= 7     38.50 sec, wall time     15.85 sec
  HOMO = -0.115697430601005  LUMO = -0.0281299381708436
  mo_energy =
[-10.04227143 -10.04202551 -10.03715647 -10.03422564 -10.03368465
 -10.03166513 -10.02766356 -10.02650589 -10.02533248 -10.02281643
 -10.02138008 -10.02134184 -10.02081751 -10.01943901 -10.01933783
 -10.01894282 -10.01873155 -10.01663442 -10.01401912 -10.01378819
 -10.01253074 -10.00263173  -0.88875737  -0.87447057  -0.83586831
  -0.81416528  -0.79380213  -0.78595352  -0.75997206  -0.74375387
  -0.71292264  -0.69842141  -0.66422356  -0.64154004  -0.61787996
  -0.58791952  -0.5637518   -0.56203579  -0.53788785  -0.53707438
  -0.5039557   -0.48706953  -0.47379935  -0.47044919  -0.44931943
  -0.4402686   -0.43324631  -0.43132084  -0.42031289  -0.40364991
  -0.40161684  -0.39026117  -0.38161293  -0.37299112  -0.361948
  -0.34988182  -0.34452621  -0.3313307   -0.31605818  -0.30547149
  -0.30105018  -0.28746659  -0.28227139  -0.26454151  -0.2624032
  -0.25198896  -0.24670913  -0.23291716  -0.19661796  -0.19225066
  -0.17984208  -0.16915426  -0.11569743  -0.02812994   0.03681014
   0.05200397   0.10770773   0.11546112   0.13431549   0.16043538
   0.18335589   0.19138568   0.1956791    0.22023253   0.22582799
   0.24357483   0.25589628   0.27241658   0.28496736   0.29244242
   0.30068937   0.30963783   0.34696034   0.36132977   0.37461127
   0.37882526   0.40118891   0.41419969   0.42996568   0.45912079
   0.47399776   0.49594197   0.54134882   0.55111245   0.5677377
   0.59501943   0.60104864   0.61177509   0.64246522   0.68294788
   0.7093344    0.73914786   0.7679473    0.78225592   0.82093226
   0.83337186   0.84385527   0.89748665   0.95125258   0.96948014
   0.99938542   1.02998456   1.06532467   1.15300619]
nelec by numeric integration = 146.0000030246331
    CPU time for vxc     38.34 sec, wall time     15.90 sec
E1 = -4139.224973323872  Ecoul = 1914.1022294640848  Exc = -124.9839035096029
cycle= 8 E= -835.213296279175  delta_E= -1.07e-06  |g|= 0.000818  |ddm|= 0.00305
    CPU time for cycle= 8     38.71 sec, wall time     15.97 sec
  HOMO = -0.115750038460884  LUMO = -0.0281590752883072
  mo_energy =
[-10.04222676 -10.04208071 -10.03723678 -10.03420716 -10.03378245
 -10.03164083 -10.02776771 -10.02642128 -10.02531127 -10.02272896
 -10.02142884 -10.02137612 -10.02080776 -10.01943675 -10.01933149
 -10.01905135 -10.01878751 -10.01668946 -10.01401845 -10.01392155
 -10.01247673 -10.00279138  -0.88878598  -0.87447038  -0.83589894
  -0.81419151  -0.7938268   -0.78596373  -0.76002934  -0.7437575
  -0.71291532  -0.69844666  -0.66425993  -0.6415723   -0.61789812
  -0.58792415  -0.56377539  -0.56206109  -0.53791018  -0.53711033
  -0.50396365  -0.48707592  -0.47380945  -0.47045973  -0.44933926
  -0.44025998  -0.43327069  -0.4313607   -0.4203265   -0.40367353
  -0.40162999  -0.39027027  -0.38164107  -0.3730139   -0.3619508
  -0.34991068  -0.34455723  -0.33131593  -0.31604965  -0.3054951
  -0.30104732  -0.28746427  -0.28227618  -0.2645513   -0.26242161
  -0.25202318  -0.24672831  -0.23293049  -0.19663162  -0.19225165
  -0.17984589  -0.16916664  -0.11575004  -0.02815908   0.03679624
   0.05199953   0.10768846   0.11544709   0.1343008    0.1604189
   0.18334045   0.19138088   0.19567507   0.22024122   0.22580711
   0.24358348   0.25590125   0.27239232   0.28492815   0.29246758
   0.30067765   0.30963454   0.34694557   0.36133758   0.37458659
   0.37881142   0.40120065   0.41419227   0.42995293   0.45908039
   0.47395862   0.49591926   0.54129079   0.55107711   0.56771177
   0.59499156   0.60100997   0.61175963   0.6424293    0.68292916
   0.70933591   0.73911079   0.76788007   0.78218481   0.82095339
   0.83333478   0.84383433   0.89749343   0.95124162   0.96945587
   0.9993465    1.02998751   1.06529408   1.15302622]
nelec by numeric integration = 146.00000302468405
    CPU time for vxc     38.76 sec, wall time     16.07 sec
E1 = -4139.227074357654  Ecoul = 1914.1043793667684  Exc = -124.9839526213323
cycle= 9 E= -835.213296522002  delta_E= -2.43e-07  |g|= 0.000239  |ddm|= 0.0013
    CPU time for cycle= 9     39.27 sec, wall time     16.16 sec
  HOMO = -0.115751991577834  LUMO = -0.0281576549399156
  mo_energy =
[-10.04222961 -10.04207743 -10.0372427  -10.03420545 -10.03378465
 -10.03165546 -10.02774814 -10.02645013 -10.02533428 -10.02277527
 -10.02139802 -10.02136503 -10.02080994 -10.01941204 -10.0193125
 -10.01904284 -10.01875908 -10.01668926 -10.01405636 -10.01391921
 -10.01248111 -10.00281298  -0.88878302  -0.87447169  -0.8359028
  -0.81419078  -0.79383217  -0.78597165  -0.76002956  -0.74375885
  -0.71291626  -0.69844505  -0.6642603   -0.64156979  -0.61790064
  -0.5879258   -0.56377703  -0.56206176  -0.5379118   -0.53711123
  -0.50396713  -0.48707936  -0.47381158  -0.47046295  -0.44933878
  -0.44026114  -0.43326976  -0.4313616   -0.42032406  -0.40367261
  -0.40162839  -0.39027109  -0.38164171  -0.37301534  -0.36196239
  -0.34991402  -0.34456003  -0.33131656  -0.31605106  -0.305497
  -0.30105316  -0.2874677   -0.28227982  -0.26455485  -0.26242109
  -0.2520203   -0.24672835  -0.23292914  -0.19663821  -0.19225045
  -0.1798482   -0.16916766  -0.11575199  -0.02815765   0.0367921
   0.05200211   0.10768792   0.1154487    0.13430314   0.16041597
   0.18333602   0.19137716   0.19567241   0.22023734   0.22580422
   0.24358071   0.2558916    0.2723907    0.28492947   0.29246211
   0.3006792    0.3096372    0.34694538   0.36133681   0.37458916
   0.37880897   0.40120125   0.4141887    0.42994676   0.45907398
   0.47395269   0.49591956   0.54129      0.55108214   0.56771245
   0.59499385   0.60101369   0.61176129   0.64242828   0.6829261
   0.70932799   0.73911385   0.76787554   0.78218352   0.82095033
   0.83333342   0.84383217   0.8974893    0.95123605   0.96945363
   0.99934779   1.02997411   1.06530171   1.15302693]
nelec by numeric integration = 146.0000030246495
    CPU time for vxc     39.58 sec, wall time     17.12 sec
E1 = -4139.227122752218  Ecoul = 1914.1044248632686  Exc = -124.98394974173227
cycle= 10 E= -835.213296540466  delta_E= -1.85e-08  |g|= 9.68e-05  |ddm|= 0.000349
    CPU time for cycle= 10     40.31 sec, wall time     17.24 sec
  HOMO = -0.11574831858084  LUMO = -0.0281541672514895
  mo_energy =
[-10.04222717 -10.04206461 -10.03725752 -10.03420576 -10.03376808
 -10.03165262 -10.027763   -10.02644542 -10.02533171 -10.0227618
 -10.02141425 -10.02138041 -10.02079608 -10.01942631 -10.01932216
 -10.01903985 -10.01874513 -10.0166888  -10.01405658 -10.01392179
 -10.01249848 -10.00281458  -0.88879008  -0.87447249  -0.83589834
  -0.8141924   -0.79383719  -0.78596369  -0.76002859  -0.7437623
  -0.71292018  -0.69845125  -0.66425829  -0.6415663   -0.6179044
  -0.5879273   -0.56377184  -0.56206574  -0.53791383  -0.53710966
  -0.50396684  -0.48707968  -0.47381436  -0.47046486  -0.44933525
  -0.44026289  -0.43327199  -0.4313601   -0.42032727  -0.40366658
  -0.40163181  -0.39027419  -0.38164817  -0.3730144   -0.36196096
  -0.34991341  -0.34455898  -0.33132129  -0.31605938  -0.30550017
  -0.30105501  -0.28746588  -0.28227926  -0.26455331  -0.262418
  -0.25202087  -0.24672991  -0.2329311   -0.19663554  -0.19225491
  -0.17985395  -0.16917338  -0.11574832  -0.02815417   0.0367883
   0.05199763   0.10768696   0.11544878   0.13430475   0.16041766
   0.18333976   0.19137269   0.19566884   0.22023189   0.22580291
   0.2435792    0.25588927   0.27239071   0.28493612   0.29245547
   0.30068372   0.30963157   0.3469403    0.36133196   0.37459526
   0.37880801   0.40119996   0.41418466   0.42994376   0.4590719
   0.47395016   0.49591005   0.54128861   0.55108308   0.56771255
   0.59499695   0.60101931   0.61177123   0.64242151   0.68292739
   0.70933342   0.7391073    0.76787374   0.78218408   0.82095001
   0.8333395    0.8438338    0.89748868   0.95123042   0.96944577
   0.99933926   1.02998343   1.06529192   1.15302641]
nelec by numeric integration = 146.00000302461984
    CPU time for vxc     38.65 sec, wall time     16.10 sec
E1 = -4139.227441372381  Ecoul = 1914.1047428495842  Exc = -124.98394911168086
cycle= 11 E= -835.213296544262  delta_E= -3.8e-09  |g|= 3.28e-05  |ddm|= 0.000246
    CPU time for cycle= 11     39.21 sec, wall time     16.19 sec
  HOMO = -0.115749250487281  LUMO = -0.0281545546245826
  mo_energy =
[-10.0422296  -10.04206821 -10.03724803 -10.03420748 -10.0337712
 -10.03165338 -10.02775498 -10.02644662 -10.02533235 -10.02275933
 -10.02141056 -10.02137565 -10.02079783 -10.01942204 -10.01932028
 -10.01904026 -10.01874852 -10.01668966 -10.01404936 -10.01392283
 -10.01248813 -10.00281762  -0.88878661  -0.87447222  -0.83589892
  -0.81419077  -0.79383438  -0.7859642   -0.76002901  -0.74376064
  -0.71291858  -0.69844815  -0.66425863  -0.64156694  -0.61790201
  -0.58792637  -0.56377269  -0.56206384  -0.53791252  -0.53710982
  -0.50396605  -0.48707897  -0.47381264  -0.47046336  -0.44933581
  -0.44026239  -0.43327071  -0.43136035  -0.42032582  -0.40366764
  -0.40162996  -0.39027254  -0.38164532  -0.3730139   -0.36196044
  -0.34991291  -0.34455859  -0.33131966  -0.31605588  -0.30549862
  -0.30105308  -0.28746595  -0.2822783   -0.26455307  -0.26241859
  -0.25202042  -0.24672881  -0.23293033  -0.19663597  -0.19225315
  -0.17985086  -0.16917026  -0.11574925  -0.02815455   0.03679097
   0.0519991    0.10768751   0.11544865   0.13430439   0.16041772
   0.18333939   0.19137499   0.19567094   0.22023464   0.22580436
   0.24357958   0.25589038   0.27239118   0.28493452   0.29245832
   0.30068265   0.30963353   0.3469429    0.36133407   0.37459358
   0.37880988   0.40119996   0.41418765   0.42994568   0.45907192
   0.47395082   0.49591412   0.54128909   0.55108381   0.56771359
   0.59499693   0.6010186    0.61176948   0.64242461   0.68292802
   0.70933394   0.73911057   0.76787361   0.78218318   0.82095003
   0.83333846   0.84383408   0.89748911   0.95123405   0.96944927
   0.99934388   1.02998295   1.06529576   1.15302552]
nelec by numeric integration = 146.00000302463314
    CPU time for vxc     38.27 sec, wall time     16.02 sec
E1 = -4139.227299438675  Ecoul = 1914.1046004285993  Exc = -124.98394862484326
cycle= 12 E= -835.213296544703  delta_E= -4.41e-10  |g|= 9.64e-06  |ddm|= 6.46e-05
    CPU time for cycle= 12     38.87 sec, wall time     16.12 sec
  HOMO = -0.11574881609794  LUMO = -0.0281541950227277
  mo_energy =
[-10.04222836 -10.04206751 -10.03724722 -10.03420614 -10.03377223
 -10.03165206 -10.02775756 -10.02644572 -10.02533146 -10.02275985
 -10.02140933 -10.02137491 -10.0207986  -10.01942178 -10.01932007
 -10.0190402  -10.01874783 -10.01668809 -10.01405097 -10.01392195
 -10.01248899 -10.0028153   -0.88878636  -0.87447173  -0.83589856
  -0.81419069  -0.79383412  -0.78596434  -0.76002854  -0.74376034
  -0.71291826  -0.69844811  -0.66425828  -0.64156679  -0.61790181
  -0.58792616  -0.56377268  -0.56206349  -0.53791217  -0.53710974
  -0.50396596  -0.4870788   -0.4738126   -0.47046305  -0.44933571
  -0.44026213  -0.4332705   -0.43136025  -0.42032546  -0.40366747
  -0.4016297   -0.39027235  -0.38164519  -0.37301381  -0.36196007
  -0.34991266  -0.3445583   -0.33131929  -0.31605548  -0.30549822
  -0.3010531   -0.28746586  -0.2822782   -0.26455292  -0.26241849
  -0.25202014  -0.24672853  -0.23292996  -0.19663545  -0.19225285
  -0.17985066  -0.1691702   -0.11574882  -0.0281542    0.03679098
   0.05199939   0.10768792   0.11544889   0.13430437   0.16041796
   0.18333981   0.19137533   0.19567119   0.22023482   0.22580459
   0.24357996   0.25589091   0.2723916    0.28493453   0.29245864
   0.30068278   0.30963416   0.34694305   0.361334     0.37459362
   0.37880984   0.40120023   0.41418755   0.4299458    0.45907252
   0.47395124   0.49591428   0.54128938   0.55108352   0.56771349
   0.59499676   0.60101833   0.61176918   0.64242468   0.68292833
   0.70933379   0.73911095   0.76787441   0.78218395   0.82095044
   0.83333833   0.84383423   0.89748962   0.95123415   0.96944968
   0.99934408   1.02998316   1.06529635   1.15302636]
nelec by numeric integration = 146.0000030246319
    CPU time for vxc     38.41 sec, wall time     16.01 sec
E1 = -4139.2272755718695  Ecoul = 1914.1045760568709  Exc = -124.98394811995462
cycle= 13 E= -835.213296544737  delta_E= -3.46e-11  |g|= 4.4e-06  |ddm|= 2.05e-05
    CPU time for cycle= 13     38.75 sec, wall time     16.07 sec
  HOMO = -0.115749458666834  LUMO = -0.0281547561831614
  mo_energy =
[-10.04222914 -10.04206826 -10.03724913 -10.03420693 -10.03377105
 -10.03165323 -10.027755   -10.02644638 -10.02533221 -10.02276071
 -10.02141029 -10.02137583 -10.02079781 -10.01942215 -10.01931999
 -10.01904058 -10.0187492  -10.01669002 -10.01405021 -10.01392269
 -10.01248886 -10.00281738  -0.88878679  -0.87447219  -0.83589919
  -0.81419098  -0.79383457  -0.78596459  -0.76002915  -0.74376064
  -0.71291851  -0.69844833  -0.66425881  -0.64156723  -0.61790212
  -0.58792643  -0.56377298  -0.56206391  -0.53791267  -0.53710996
  -0.50396621  -0.48707912  -0.47381267  -0.47046346  -0.44933595
  -0.44026237  -0.43327079  -0.43136043  -0.42032591  -0.40366801
  -0.40163004  -0.3902726   -0.38164541  -0.37301401  -0.36196067
  -0.34991307  -0.34455877  -0.33131943  -0.3160556   -0.30549865
  -0.30105319  -0.287466    -0.28227843  -0.26455322  -0.26241861
  -0.25202049  -0.24672883  -0.23293035  -0.19663615  -0.19225306
  -0.17985091  -0.16917038  -0.11574946  -0.02815476   0.03679082
   0.05199917   0.10768744   0.1154486    0.13430429   0.16041758
   0.18333911   0.19137502   0.19567083   0.22023469   0.22580414
   0.24357971   0.25589044   0.27239103   0.28493441   0.29245858
   0.30068253   0.30963366   0.34694279   0.36133414   0.37459359
   0.37880958   0.40120004   0.41418739   0.42994551   0.4590719
   0.47395079   0.49591407   0.54128895   0.55108354   0.56771339
   0.59499661   0.60101829   0.61176901   0.64242448   0.68292789
   0.70933344   0.73911029   0.76787355   0.78218306   0.82095017
   0.83333832   0.84383395   0.89748916   0.95123382   0.96944914
   0.99934352   1.02998244   1.06529567   1.15302581]
nelec by numeric integration = 146.00000302463118
    CPU time for vxc     37.94 sec, wall time     15.84 sec
E1 = -4139.2273168263555  Ecoul = 1914.1046181907225  Exc = -124.98394899930759
Extra cycle  E= -835.213296544725  delta_E= 1.27e-11  |g|= 7.44e-06  |ddm|= 1.76e-05
    CPU time for scf_cycle    591.81 sec, wall time    243.64 sec
    CPU time for SCF    591.81 sec, wall time    243.64 sec
converged SCF energy = -835.213296544725
nelec by numeric integration = 146.00000302463118
    CPU time for vxc     37.74 sec, wall time     15.85 sec
 ** Mulliken pop  **
pop of  0 C 1s            1.99112
pop of  0 C 2s            1.16236
pop of  0 C 2px           0.94446
pop of  0 C 2py           0.94639
pop of  0 C 2pz           0.96420
pop of  1 C 1s            1.99169
pop of  1 C 2s            1.08366
pop of  1 C 2px           1.00662
pop of  1 C 2py           0.99444
pop of  1 C 2pz           0.90868
pop of  2 C 1s            1.99095
pop of  2 C 2s            1.14184
pop of  2 C 2px           1.04362
pop of  2 C 2py           0.93804
pop of  2 C 2pz           0.99442
pop of  3 C 1s            1.99082
pop of  3 C 2s            1.14088
pop of  3 C 2px           0.99045
pop of  3 C 2py           0.94525
pop of  3 C 2pz           1.00030
pop of  4 C 1s            1.99088
pop of  4 C 2s            1.15999
pop of  4 C 2px           0.97271
pop of  4 C 2py           0.91571
pop of  4 C 2pz           1.01563
pop of  5 C 1s            1.99092
pop of  5 C 2s            1.07560
pop of  5 C 2px           1.04038
pop of  5 C 2py           0.99719
pop of  5 C 2pz           1.05734
pop of  6 C 1s            1.99056
pop of  6 C 2s            1.11037
pop of  6 C 2px           1.03180
pop of  6 C 2py           0.98852
pop of  6 C 2pz           1.01046
pop of  7 C 1s            1.99143
pop of  7 C 2s            1.17536
pop of  7 C 2px           0.93823
pop of  7 C 2py           0.95714
pop of  7 C 2pz           0.95699
pop of  8 C 1s            1.99130
pop of  8 C 2s            1.09236
pop of  8 C 2px           0.98506
pop of  8 C 2py           0.99387
pop of  8 C 2pz           0.93747
pop of  9 C 1s            1.99149
pop of  9 C 2s            1.15916
pop of  9 C 2px           0.94467
pop of  9 C 2py           0.91822
pop of  9 C 2pz           0.93331
pop of  10 C 1s           1.99070
pop of  10 C 2s           1.08853
pop of  10 C 2px          1.01950
pop of  10 C 2py          0.98862
pop of  10 C 2pz          1.02939
pop of  11 C 1s           1.99040
pop of  11 C 2s           1.03057
pop of  11 C 2px          1.04512
pop of  11 C 2py          1.01988
pop of  11 C 2pz          1.07144
pop of  12 C 1s           1.99080
pop of  12 C 2s           1.15220
pop of  12 C 2px          0.96939
pop of  12 C 2py          0.91914
pop of  12 C 2pz          0.92390
pop of  13 C 1s           1.99038
pop of  13 C 2s           0.99840
pop of  13 C 2px          1.01215
pop of  13 C 2py          1.02849
pop of  13 C 2pz          0.99200
pop of  14 C 1s           1.99139
pop of  14 C 2s           1.12943
pop of  14 C 2px          0.99348
pop of  14 C 2py          0.97222
pop of  14 C 2pz          0.96586
pop of  15 C 1s           1.99127
pop of  15 C 2s           1.03579
pop of  15 C 2px          1.03016
pop of  15 C 2py          1.02075
pop of  15 C 2pz          0.98874
pop of  16 C 1s           1.99104
pop of  16 C 2s           1.10796
pop of  16 C 2px          0.98278
pop of  16 C 2py          0.97730
pop of  16 C 2pz          0.96402
pop of  17 C 1s           1.99154
pop of  17 C 2s           1.14260
pop of  17 C 2px          0.97292
pop of  17 C 2py          0.94898
pop of  17 C 2pz          0.92278
pop of  18 C 1s           1.99135
pop of  18 C 2s           1.14572
pop of  18 C 2px          0.98981
pop of  18 C 2py          0.94521
pop of  18 C 2pz          0.96981
pop of  19 C 1s           1.99274
pop of  19 C 2s           1.12900
pop of  19 C 2px          0.94575
pop of  19 C 2py          0.95016
pop of  19 C 2pz          0.96230
pop of  20 C 1s           1.99092
pop of  20 C 2s           1.05759
pop of  20 C 2px          1.00351
pop of  20 C 2py          1.01953
pop of  20 C 2pz          0.99221
pop of  21 C 1s           1.99110
pop of  21 C 2s           1.05183
pop of  21 C 2px          1.02967
pop of  21 C 2py          1.04318
pop of  21 C 2pz          1.01734
pop of  22 H 1s           0.88738
pop of  23 H 1s           0.93082
pop of  24 H 1s           0.91695
pop of  25 H 1s           0.87924
pop of  26 H 1s           0.87717
pop of  27 H 1s           0.96235
pop of  28 H 1s           0.90487
pop of  29 H 1s           0.87941
pop of  30 H 1s           0.96980
pop of  31 H 1s           0.96764
pop of  32 H 1s           0.93804
pop of  33 H 1s           0.97291
pop of  34 H 1s           0.93170
pop of  35 H 1s           0.90663
 ** Mulliken atomic charges  **
charge of    0C =     -0.00852
charge of    1C =      0.01491
charge of    2C =     -0.10888
charge of    3C =     -0.06770
charge of    4C =     -0.05492
charge of    5C =     -0.16144
charge of    6C =     -0.13172
charge of    7C =     -0.01915
charge of    8C =     -0.00006
charge of    9C =      0.05314
charge of   10C =     -0.11675
charge of   11C =     -0.15741
charge of   12C =      0.04457
charge of   13C =     -0.02142
charge of   14C =     -0.05237
charge of   15C =     -0.06672
charge of   16C =     -0.02311
charge of   17C =      0.02118
charge of   18C =     -0.04191
charge of   19C =      0.02004
charge of   20C =     -0.06376
charge of   21C =     -0.13312
charge of   22H =      0.11262
charge of   23H =      0.06918
charge of   24H =      0.08305
charge of   25H =      0.12076
charge of   26H =      0.12283
charge of   27H =      0.03765
charge of   28H =      0.09513
charge of   29H =      0.12059
charge of   30H =      0.03020
charge of   31H =      0.03236
charge of   32H =      0.06196
charge of   33H =      0.02709
charge of   34H =      0.06830
charge of   35H =      0.09337
Dipole moment(X, Y, Z, Debye):  0.09232,  0.55056, -0.11421
nelec by numeric integration = 146.00000302463118
    CPU time for vxc     38.40 sec, wall time     15.97 sec
E1 = -4139.2273168263555  Ecoul = 1914.1046181907225  Exc = -124.98394899930759
nelec by numeric integration = 146.00000302463118
    CPU time for vxc     37.96 sec, wall time     15.87 sec
E1 = -4139.2273168263555  Ecoul = 1914.104618190723  Exc = -124.98394899930759
