System: uname_result(system='Linux', node='cosmopc18', release='5.15.0-97-generic', version='#107-Ubuntu SMP Wed Feb 7 13:26:48 UTC 2024', machine='x86_64')  Threads 4
Python 3.11.8 (main, Feb 26 2024, 21:39:34) [GCC 11.2.0]
numpy 1.26.4  scipy 1.11.4
Date: Tue Apr  9 15:01:55 2024
PySCF version 2.3.0
PySCF path  /home/saade/miniconda3/envs/tutorial/lib/python3.11/site-packages/pyscf

[ENV] PYSCFAD_BACKEND torch
[CONFIG] conf_file None
[INPUT] verbose = 5
[INPUT] max_memory = 4000 
[INPUT] num. atoms = 36
[INPUT] num. electrons = 146
[INPUT] charge = 0
[INPUT] spin (= nelec alpha-beta = 2S) = 0
[INPUT] symmetry False subgroup None
[INPUT] Mole.unit = angstrom
[INPUT] Symbol           X                Y                Z      unit          X                Y                Z       unit  Magmom
[INPUT]  1 C      0.031035000000   3.567434000000   0.565296000000 AA    0.058647650276   6.741473227462   1.068254619312 Bohr   0.0
[INPUT]  2 C      0.047476000000   3.720086000000  -0.820584000000 AA    0.089716637490   7.029943699829  -1.550679022200 Bohr   0.0
[INPUT]  3 C      0.172427000000   4.903316000000   1.431631000000 AA    0.325839806480   9.265924342198   2.705390501437 Bohr   0.0
[INPUT]  4 C     -0.120463000000   2.433527000000   1.390303000000 AA   -0.227642078143   4.598699546734   2.627291900161 Bohr   0.0
[INPUT]  5 C      0.045862000000   5.039514000000  -1.370708000000 AA    0.086666619525   9.523301260911  -2.590262716750 Bohr   0.0
[INPUT]  6 C      0.165622000000   2.579490000000  -1.383926000000 AA    0.312980220203   4.874529641054  -2.615241116665 Bohr   0.0
[INPUT]  7 C     -0.032896000000   6.108499000000  -0.837881000000 AA   -0.062164430594  11.543390142180  -1.583365614977 Bohr   0.0
[INPUT]  8 C      0.014403000000   6.101606000000   0.746344000000 AA    0.027217725372  11.530364260003   1.410385754712 Bohr   0.0
[INPUT]  9 C     -0.049460000000   1.225229000000   0.673860000000 AA   -0.093465854121   2.315347249875   1.273410846299 Bohr   0.0
[INPUT] 10 C     -0.009109000000   1.325538000000  -0.604143000000 AA   -0.017213515269   2.504903787704  -1.141664810073 Bohr   0.0
[INPUT] 11 C      0.045209000000  -0.064555000000   1.430530000000 AA    0.085432628365  -0.121991269971   2.703309912974 Bohr   0.0
[INPUT] 12 C      0.095728000000   0.040302000000  -1.468395000000 AA    0.180899702452   0.076159742272  -2.774864392681 Bohr   0.0
[INPUT] 13 C     -0.023395000000  -1.042830000000   0.698515000000 AA   -0.044210142684  -1.970663094480   1.320002043901 Bohr   0.0
[INPUT] 14 C     -0.206980000000  -1.201415000000  -0.800891000000 AA   -0.391135513262  -2.270345311944  -1.513464645629 Bohr   0.0
[INPUT] 15 C     -0.018012000000  -2.319840000000   1.295840000000 AA   -0.034037746956  -4.383862252811   2.448782701256 Bohr   0.0
[INPUT] 16 C     -0.092092000000  -2.440983000000  -1.255345000000 AA   -0.174028658263  -4.612789344719  -2.372258241842 Bohr   0.0
[INPUT] 17 C      0.066136000000  -3.683585000000   0.710253000000 AA    0.124978926974  -6.960966806556   1.342183649151 Bohr   0.0
[INPUT] 18 C     -0.043474000000  -3.605352000000  -0.660190000000 AA   -0.082153953539  -6.813127862653  -1.247578290177 Bohr   0.0
[INPUT] 19 C      0.099988000000  -4.931765000000   1.379760000000 AA    0.188949935743  -9.319685160716   2.607368517630 Bohr   0.0
[INPUT] 20 C      0.042082000000  -4.900546000000  -1.514581000000 AA    0.079523454774  -9.260689800833  -2.862143283470 Bohr   0.0
[INPUT] 21 C     -0.020701000000  -6.008367000000   0.826826000000 AA   -0.039119220505 -11.354168085875   1.562474692670 Bohr   0.0
[INPUT] 22 C     -0.070054000000  -6.078815000000  -0.554962000000 AA   -0.132382873930 -11.487295511898  -1.048726189541 Bohr   0.0
[INPUT] 23 H      0.030136000000   5.160360000000   2.446529000000 AA    0.056948786490   9.751667104161   4.623269765806 Bohr   0.0
[INPUT] 24 H      0.063827000000   2.363287000000   2.505155000000 AA    0.120615549353   4.465965183745   4.734056849585 Bohr   0.0
[INPUT] 25 H     -0.044120000000   4.922879000000  -2.490309000000 AA   -0.083374716616   9.302893054373  -4.706001975539 Bohr   0.0
[INPUT] 26 H      0.047173000000   2.439869000000  -2.647833000000 AA    0.089144050474   4.610684189816  -5.003679193585 Bohr   0.0
[INPUT] 27 H      0.095160000000   6.946930000000  -1.368420000000 AA    0.179826338014  13.127795106525  -2.585939023377 Bohr   0.0
[INPUT] 28 H     -0.116327000000   7.003770000000   1.135573000000 AA   -0.219826170892  13.235207139445   2.145921964451 Bohr   0.0
[INPUT] 29 H      0.024557000000   0.214219000000   2.301248000000 AA    0.046406004441   0.404815240678   4.348728464703 Bohr   0.0
[INPUT] 30 H      0.266720000000  -0.032656000000  -2.508390000000 AA    0.504027751944  -0.061710896324  -4.740170113598 Bohr   0.0
[INPUT] 31 H      0.068149000000  -2.514887000000   2.622491000000 AA    0.128782945663  -4.752447664229   4.955789754137 Bohr   0.0
[INPUT] 32 H     -0.109400000000  -2.498040000000  -2.527324000000 AA   -0.206736038027  -4.720611448209  -4.775950188040 Bohr   0.0
[INPUT] 33 H     -0.025110000000  -4.855077000000   2.518234000000 AA   -0.047451022988  -9.174765843675   4.758772577568 Bohr   0.0
[INPUT] 34 H     -0.036013000000  -4.673466000000  -2.611588000000 AA   -0.068054706924  -8.831570792467  -4.935186070201 Bohr   0.0
[INPUT] 35 H     -0.237120000000  -7.068400000000   1.176840000000 AA   -0.448091858657 -13.357340138876   2.223905292433 Bohr   0.0
[INPUT] 36 H      0.210879000000  -7.019460000000  -1.223005000000 AA    0.398503555422 -13.264856942339  -2.311144498974 Bohr   0.0
[INPUT] ---------------- BASIS SET ---------------- 
[INPUT] l, kappa, [nprim/nctr], expnt,             c_1 c_2 ...
[INPUT] H
[INPUT] 0    0    [3    /1   ]  3.42525091        0.15432897
                                0.62391373        0.53532814
                                0.1688554         0.44463454
[INPUT] C
[INPUT] 0    0    [3    /1   ]  71.616837         0.15432897
                                13.045096         0.53532814
                                3.5305122         0.44463454
[INPUT] 0    0    [3    /1   ]  2.9412494         -0.09996723
                                0.6834831         0.39951283
                                0.2222899         0.70011547
[INPUT] 1    0    [3    /1   ]  2.9412494         0.15591627
                                0.6834831         0.60768372
                                0.2222899         0.39195739

nuclear repulsion = 1501.05111505158
number of shells = 80
number of NR pGTOs = 372
number of NR cGTOs = 124
basis = sto3g
ecp = {}
CPU time:     46834.19
atom C rad-grids = 99, ang-grids = [ 50  50  50  50  50  50  50  50  50  50  50  50  50  50  50  50  50  50
  50  50  50  50  50  50  50  50  50  50  50  50  50  86  86  86  86  86
  86  86  86  86  86  86  86 434 434 434 434 434 434 434 434 434 590 590
 590 590 590 590 590 590 590 590 590 590 590 590 590 590 590 590 590 590
 590 590 590 590 590 590 590 434 434 434 434 434 434 434 434 434 434 434
 434 434 434 434 434 434 434 434 434]
atom H rad-grids = 99, ang-grids = [ 50  50  50  50  50  50  50  50  50  50  50  50  50  50  50  50  50  50
  50  50  50  50  50  50  50  50  50  50  86  86  86  86  86  86  86 434
 434 434 434 434 434 434 434 590 590 590 590 590 590 590 590 590 590 590
 590 590 590 590 590 590 590 590 590 590 590 590 590 590 590 434 434 434
 434 434 434 434 434 434 434 434 434 434 434 434 434 434 434 434 434 434
 434 434 434 434 434 434 434 434 434]
tot_boxes 5270, boxes in each direction [ 8 29 15]
Padding 0 grids
tot grids = 1157832


******** <class 'pyscf.dft.rks.RKS'> ********
method = RKS
initial guess = minao
damping factor = 0
level_shift factor = 0
DIIS = <class 'pyscf.scf.diis.CDIIS'>
diis_start_cycle = 1
diis_space = 8
SCF conv_tol = 1e-10
SCF conv_tol_grad = None
SCF max_cycles = 50
direct_scf = True
direct_scf_tol = 1e-13
chkfile to save SCF result = /home/saade/mlelec/tutorials/tmp3_cbosnt
max_memory 4000 MB (current use 638 MB)
XC library pyscf.dft.libxc version 6.1.0
    S. Lehtola, C. Steigemann, M. J.T. Oliveira, and M. A.L. Marques.,  SoftwareX 7, 1–5 (2018)
XC functionals = b3lypg
    P. J. Stephens, F. J. Devlin, C. F. Chabalowski, and M. J. Frisch.,  J. Phys. Chem. 98, 11623 (1994)
radial grids: 
    Treutler-Ahlrichs [JCP 102, 346 (1995); DOI:10.1063/1.469408] (M4) radial grids
    
becke partition: Becke, JCP 88, 2547 (1988); DOI:10.1063/1.454033
pruning grids: <function nwchem_prune at 0x7f9db5616ca0>
grids dens level: 3
symmetrized grids: False
atomic radii adjust function: <function treutler_atomic_radii_adjust at 0x7f9db5617380>
User specified grid scheme (99, 590)
small_rho_cutoff = 1e-07
Set gradient conv threshold to 1e-05
Initial guess from minao.
nelec by numeric integration = 145.27160019615405
    CPU time for vxc     37.41 sec, wall time     15.71 sec
E1 = -4102.551365564703  Ecoul = 1886.0921469723346  Exc = -126.04012758376044
init E= -841.448231124553
cond(S) = 20.628219951230378
    CPU time for initialize scf     47.57 sec, wall time     18.19 sec
  HOMO = -0.204248305090676  LUMO = -0.144426206739349
  mo_energy =
[-10.14262337 -10.13013009 -10.12106401 -10.12090717 -10.11840489
 -10.11719619 -10.11509302 -10.11508494 -10.11291602 -10.10802017
 -10.10793206 -10.10616225 -10.10002414 -10.09796815 -10.09599593
 -10.09165016 -10.08861797 -10.08154938 -10.08071885 -10.0797425
 -10.07143288 -10.0643821   -1.10514827  -1.07490559  -1.04369377
  -1.00235208  -0.97031955  -0.91934096  -0.91417726  -0.88865176
  -0.86070107  -0.84169907  -0.78988515  -0.76519625  -0.71661537
  -0.71100992  -0.69010999  -0.67472753  -0.6571098   -0.6448187
  -0.59512594  -0.58774752  -0.57536107  -0.55147283  -0.53088978
  -0.52822251  -0.51526458  -0.4957259   -0.49322418  -0.48609135
  -0.47887668  -0.46333443  -0.45907847  -0.4537209   -0.44391865
  -0.43032965  -0.42038577  -0.41475228  -0.40370105  -0.39354986
  -0.37791792  -0.37388011  -0.36411074  -0.35969557  -0.33806389
  -0.33455309  -0.32398402  -0.31744517  -0.31297439  -0.29535882
  -0.27444118  -0.253372    -0.20424831  -0.14442621  -0.0860641
  -0.05866767  -0.05586124  -0.02082722  -0.01261717   0.02119511
   0.05428735   0.09665044   0.11114759   0.12212913   0.12750047
   0.1513569    0.16638037   0.17130284   0.18115802   0.18389435
   0.1982463    0.19902727   0.22664564   0.23812845   0.25937073
   0.27618564   0.28913958   0.29580211   0.31292057   0.32160552
   0.33715757   0.35878658   0.36165822   0.37603143   0.40249352
   0.42456144   0.42930192   0.44258379   0.47852996   0.49503963
   0.50198712   0.51910433   0.53512087   0.55944052   0.57184555
   0.58599424   0.60289206   0.64408222   0.65468008   0.71006308
   0.74905837   0.80186573   0.81843833   0.85462606]
nelec by numeric integration = 146.00000511773598
    CPU time for vxc     38.29 sec, wall time     15.98 sec
E1 = -4117.748075844512  Ecoul = 1905.5479258919377  Exc = -124.69614033379791
cycle= 1 E= -835.845175234797  delta_E=  5.6  |g|= 0.284  |ddm|= 9.26
    CPU time for cycle= 1     38.67 sec, wall time     16.04 sec
  HOMO = -0.0833382858938167  LUMO = 0.00907770716135708
  mo_energy =
[-1.00439436e+01 -1.00283322e+01 -1.00222782e+01 -1.00167691e+01
 -1.00105399e+01 -1.00042183e+01 -9.99113039e+00 -9.99022951e+00
 -9.98904072e+00 -9.98884361e+00 -9.98564577e+00 -9.98508471e+00
 -9.97773374e+00 -9.97610401e+00 -9.97490786e+00 -9.96806434e+00
 -9.96556837e+00 -9.96328197e+00 -9.96248305e+00 -9.95565340e+00
 -9.93214388e+00 -9.91761199e+00 -8.45000735e-01 -8.14517620e-01
 -7.96459040e-01 -7.71601998e-01 -7.41479214e-01 -7.21157918e-01
 -7.12334405e-01 -6.95258781e-01 -6.75588371e-01 -6.65161101e-01
 -6.15907197e-01 -6.06066292e-01 -5.72645545e-01 -5.64182892e-01
 -5.51247118e-01 -5.45334722e-01 -5.18569925e-01 -5.09540032e-01
 -4.74350729e-01 -4.62042283e-01 -4.58828255e-01 -4.36693758e-01
 -4.26612486e-01 -4.21811408e-01 -4.05128658e-01 -3.92800141e-01
 -3.80312672e-01 -3.75851436e-01 -3.64038513e-01 -3.62776995e-01
 -3.57159384e-01 -3.46413942e-01 -3.30257505e-01 -3.25714999e-01
 -3.17513239e-01 -3.02664092e-01 -3.00311004e-01 -2.84588202e-01
 -2.79235496e-01 -2.68426830e-01 -2.60123564e-01 -2.55074376e-01
 -2.35773171e-01 -2.23831201e-01 -2.19185365e-01 -2.14724035e-01
 -2.04137965e-01 -1.78281243e-01 -1.69601171e-01 -1.47307165e-01
 -8.33382859e-02  9.07770716e-03  6.09751815e-02  8.88018527e-02
  9.66877823e-02  1.27681546e-01  1.35286946e-01  1.96678153e-01
  2.18908651e-01  2.48746943e-01  2.58977400e-01  2.63335139e-01
  2.74662125e-01  2.98685525e-01  3.09354519e-01  3.19172093e-01
  3.23818364e-01  3.32951028e-01  3.42572281e-01  3.56199698e-01
  3.77518131e-01  3.87031906e-01  3.95857702e-01  4.19541975e-01
  4.26647794e-01  4.31268984e-01  4.66185950e-01  4.75579775e-01
  4.79330827e-01  5.01444864e-01  5.13878545e-01  5.24850146e-01
  5.38647772e-01  5.78446814e-01  5.86175905e-01  5.99172865e-01
  6.35907335e-01  6.40695846e-01  6.57178220e-01  6.66967970e-01
  6.89386324e-01  7.21945908e-01  7.38427095e-01  7.46449541e-01
  7.56296205e-01  8.02628389e-01  8.31582506e-01  8.93112601e-01
  9.09668321e-01  9.72688211e-01  9.87726983e-01  1.05319549e+00]
nelec by numeric integration = 146.0000051387136
    CPU time for vxc     38.54 sec, wall time     16.04 sec
E1 = -4112.558485399868  Ecoul = 1900.2118853861452  Exc = -124.54139958765091
cycle= 2 E= -835.836884549798  delta_E= 0.00829  |g|= 0.335  |ddm|= 0.97
    CPU time for cycle= 2     38.85 sec, wall time     16.09 sec
  HOMO = -0.103466029576999  LUMO = -0.00653994895537401
  mo_energy =
[-1.00401191e+01 -1.00258989e+01 -1.00242453e+01 -1.00200664e+01
 -1.00190738e+01 -1.00185567e+01 -1.00171244e+01 -1.00155933e+01
 -1.00142733e+01 -1.00132525e+01 -1.00128598e+01 -1.00100286e+01
 -1.00093275e+01 -1.00037371e+01 -1.00014302e+01 -9.99773328e+00
 -9.99614237e+00 -9.99088414e+00 -9.99054611e+00 -9.98248293e+00
 -9.98046789e+00 -9.95854404e+00 -8.57575554e-01 -8.40021990e-01
 -8.20175418e-01 -7.90680545e-01 -7.68209299e-01 -7.28825096e-01
 -7.24860224e-01 -7.07591374e-01 -6.91482392e-01 -6.73340483e-01
 -6.40581392e-01 -6.14773632e-01 -5.85277984e-01 -5.77401489e-01
 -5.59473275e-01 -5.50846660e-01 -5.35972777e-01 -5.23355943e-01
 -4.88620192e-01 -4.81312795e-01 -4.67933194e-01 -4.49145985e-01
 -4.33906032e-01 -4.32594684e-01 -4.14940597e-01 -4.02189355e-01
 -3.96209650e-01 -3.94218288e-01 -3.75447937e-01 -3.70170722e-01
 -3.65727862e-01 -3.58075182e-01 -3.47171035e-01 -3.36280287e-01
 -3.22417141e-01 -3.14198680e-01 -3.12686631e-01 -3.04534332e-01
 -2.92879489e-01 -2.83452413e-01 -2.75277171e-01 -2.61170586e-01
 -2.54133477e-01 -2.45491278e-01 -2.35203999e-01 -2.25284498e-01
 -2.14186417e-01 -1.92391422e-01 -1.82466357e-01 -1.56218988e-01
 -1.03466030e-01 -6.53994896e-03  5.22426635e-02  7.82251170e-02
  8.33388528e-02  1.19382643e-01  1.29280539e-01  1.65467965e-01
  1.97654358e-01  2.36239975e-01  2.44668317e-01  2.53231733e-01
  2.65049407e-01  2.83372691e-01  3.01527885e-01  3.08655803e-01
  3.21400853e-01  3.26052611e-01  3.31859009e-01  3.40124576e-01
  3.70060330e-01  3.81678393e-01  3.89991355e-01  4.17776635e-01
  4.18059590e-01  4.24863751e-01  4.51336540e-01  4.58442785e-01
  4.73535047e-01  4.95634121e-01  5.04046489e-01  5.18807723e-01
  5.34919373e-01  5.65919850e-01  5.68265431e-01  5.82621824e-01
  6.16322419e-01  6.36649854e-01  6.41567511e-01  6.48836574e-01
  6.76785848e-01  6.95435488e-01  7.15510002e-01  7.24176232e-01
  7.42031613e-01  7.92430314e-01  7.98809571e-01  8.61958085e-01
  8.98888658e-01  9.41219118e-01  9.75417783e-01  9.98804839e-01]
nelec by numeric integration = 146.000005074342
    CPU time for vxc     38.31 sec, wall time     15.98 sec
E1 = -4114.322016778231  Ecoul = 1901.9938833655867  Exc = -124.58370969199008
cycle= 3 E= -835.860728053059  delta_E= -0.0238  |g|= 0.214  |ddm|= 0.842
    CPU time for cycle= 3     38.76 sec, wall time     16.05 sec
  HOMO = -0.107844705491302  LUMO = -0.0137712681088117
  mo_energy =
[-10.0344695  -10.03319657 -10.02745452 -10.02547782 -10.02543956
 -10.02511428 -10.02408012 -10.0240253  -10.02087645 -10.01967574
 -10.01867176 -10.01865842 -10.01762068 -10.01599807 -10.01106081
 -10.00971818 -10.00684188 -10.00064633  -9.99893901  -9.99642283
  -9.99408161  -9.98987039  -0.86305782  -0.84512969  -0.82348573
  -0.79732665  -0.77308937  -0.73637929  -0.73401766  -0.71444723
  -0.69278001  -0.6805092   -0.63903613  -0.62581351  -0.5886693
  -0.58260355  -0.56750014  -0.55522024  -0.53664262  -0.52994325
  -0.48853287  -0.48556277  -0.47397794  -0.45432254  -0.43768846
  -0.4350834   -0.42172117  -0.40627572  -0.40238935  -0.39681678
  -0.37940836  -0.37570452  -0.37213465  -0.36426559  -0.35259426
  -0.34144348  -0.3297707   -0.32558483  -0.319356    -0.30294086
  -0.29614869  -0.28964073  -0.2777324   -0.26672832  -0.26195672
  -0.25100082  -0.236442    -0.23326801  -0.22134885  -0.20035106
  -0.18647843  -0.1632763   -0.10784471  -0.01377127   0.045285
   0.07302855   0.0751371    0.11217299   0.12170347   0.16331412
   0.19140575   0.23416854   0.24263317   0.25166928   0.25790764
   0.28708686   0.29933371   0.30173107   0.31641243   0.32000384
   0.32521042   0.33246603   0.36348439   0.37594973   0.38666068
   0.41095127   0.41454587   0.41825538   0.44818396   0.45624361
   0.46987873   0.48683454   0.49554877   0.51033001   0.52762432
   0.56057501   0.56260006   0.5765997    0.61571384   0.63124748
   0.63567967   0.64301686   0.66876494   0.70023084   0.71026981
   0.72062653   0.73437658   0.78169858   0.79330479   0.85035233
   0.88716632   0.93935781   0.96405983   1.00223554]
nelec by numeric integration = 146.00000514505015
    CPU time for vxc     38.33 sec, wall time     16.03 sec
E1 = -4114.776502962362  Ecoul = 1902.4420776405543  Exc = -124.59366687804314
cycle= 4 E= -835.876977148276  delta_E= -0.0162  |g|= 0.0666  |ddm|= 0.46
    CPU time for cycle= 4     38.70 sec, wall time     16.10 sec
  HOMO = -0.10826281724256  LUMO = -0.0141891308336248
  mo_energy =
[-10.03627374 -10.03625764 -10.03204785 -10.02726707 -10.02530405
 -10.02496566 -10.02212117 -10.01959457 -10.01886079 -10.01872095
 -10.01654276 -10.01477016 -10.01299521 -10.01295927 -10.00912245
 -10.0085222  -10.00694905 -10.00588104 -10.00179146  -9.99951407
  -9.99822553  -9.99796968  -0.86327044  -0.84418524  -0.82377169
  -0.79658356  -0.77190017  -0.73573022  -0.73490073  -0.71442038
  -0.69336071  -0.6801508   -0.63963095  -0.62502857  -0.58858537
  -0.58312449  -0.56628837  -0.55628533  -0.53742255  -0.52923051
  -0.48827514  -0.48546547  -0.47392712  -0.45496318  -0.43726091
  -0.43538415  -0.41979261  -0.40660941  -0.40347679  -0.39611891
  -0.37957345  -0.37609118  -0.37187383  -0.36402838  -0.35275174
  -0.34172595  -0.32928376  -0.32570518  -0.31793109  -0.30413888
  -0.29641386  -0.28883594  -0.2786549   -0.2661769   -0.26332345
  -0.2512026   -0.23668982  -0.23395099  -0.22252337  -0.19990127
  -0.18761378  -0.16394764  -0.10826282  -0.01418913   0.04472872
   0.07294699   0.0751618    0.11063928   0.12024004   0.16359055
   0.19289211   0.23366046   0.24506317   0.25044714   0.25629913
   0.28467973   0.29820858   0.30165079   0.31602583   0.32045893
   0.32583865   0.3316138    0.36477975   0.37489975   0.38559101
   0.41162876   0.41477553   0.41796208   0.45022156   0.45640144
   0.46825659   0.48706183   0.49680521   0.51133734   0.52892937
   0.56053824   0.5624789    0.57732734   0.61422924   0.62969294
   0.63675878   0.64203358   0.66880118   0.69818643   0.70859338
   0.72190523   0.73250862   0.78199008   0.79606109   0.85746292
   0.88704429   0.94045015   0.96282037   1.00161113]
nelec by numeric integration = 146.00000512127886
    CPU time for vxc     38.24 sec, wall time     15.89 sec
E1 = -4114.752909026358  Ecoul = 1902.4172887703855  Exc = -124.59398369614667
cycle= 5 E= -835.878488900544  delta_E= -0.00151  |g|= 0.024  |ddm|= 0.141
    CPU time for cycle= 5     38.71 sec, wall time     15.98 sec
  HOMO = -0.107195085565699  LUMO = -0.0125760618482788
  mo_energy =
[-10.03386857 -10.03365448 -10.02993595 -10.02539537 -10.02369676
 -10.0215295  -10.02127903 -10.02064161 -10.01845103 -10.01808847
 -10.01533131 -10.01060256 -10.01054382 -10.01012008 -10.01010668
 -10.00944355 -10.00491288 -10.00288563 -10.00132233 -10.00058457
  -9.99818613  -9.99701097  -0.86182432  -0.84333488  -0.8225267
  -0.79550143  -0.77085705  -0.73501548  -0.73311249  -0.71366829
  -0.69294399  -0.6796829   -0.63861771  -0.62400705  -0.58758626
  -0.58216223  -0.56575204  -0.55530313  -0.53648806  -0.52861923
  -0.48745358  -0.48455266  -0.47315384  -0.45385456  -0.43681525
  -0.43490721  -0.41944029  -0.40551385  -0.40236225  -0.39600265
  -0.3789465   -0.37507985  -0.37137498  -0.36320622  -0.35179838
  -0.34089442  -0.32805672  -0.3248002   -0.31764667  -0.30344855
  -0.29581055  -0.28830671  -0.27818403  -0.26517591  -0.26205885
  -0.25032716  -0.23646257  -0.23329069  -0.22111918  -0.1992235
  -0.18716948  -0.16338323  -0.10719509  -0.01257606   0.04545607
   0.07353163   0.07599462   0.11194649   0.12117444   0.16492412
   0.19335885   0.23476916   0.24527174   0.25124921   0.25737116
   0.28571703   0.29899359   0.30256076   0.31691283   0.32072304
   0.32641596   0.3327686    0.3657886    0.37606947   0.38583286
   0.41237041   0.41500347   0.41876845   0.45052418   0.45717543
   0.46901225   0.48804703   0.49741995   0.51217546   0.52883173
   0.56147964   0.5629924    0.57803613   0.61567354   0.63056302
   0.63704428   0.6432715    0.66963486   0.6999774    0.71028579
   0.72227833   0.73396679   0.78355316   0.79617913   0.85689151
   0.88862357   0.9411486    0.96512769   1.00339416]
nelec by numeric integration = 146.00000512583998
    CPU time for vxc     38.51 sec, wall time     15.94 sec
E1 = -4114.667552180236  Ecoul = 1902.32908806414  Exc = -124.59132474546581
cycle= 6 E= -835.878673809987  delta_E= -0.000185  |g|= 0.00814  |ddm|= 0.0431
    CPU time for cycle= 6     38.93 sec, wall time     16.01 sec
  HOMO = -0.107294444075173  LUMO = -0.0125973338920958
  mo_energy =
[-10.03459834 -10.03362742 -10.02902219 -10.02548378 -10.02332068
 -10.02254328 -10.0211915  -10.02104693 -10.01820166 -10.01723191
 -10.01571628 -10.01105866 -10.0104284  -10.00987485 -10.00982572
 -10.00749711 -10.00420814 -10.00231022 -10.00146079 -10.00072398
  -9.99705547  -9.99647671  -0.86176452  -0.84327814  -0.82245147
  -0.795402    -0.77092274  -0.7347216   -0.73324285  -0.71335046
  -0.69262791  -0.67933257  -0.63858743  -0.6239664   -0.58750636
  -0.58199982  -0.56561285  -0.55510174  -0.53644771  -0.5285065
  -0.4875192   -0.48450758  -0.47309501  -0.45373501  -0.43660417
  -0.43477224  -0.41935443  -0.40538651  -0.40229877  -0.39578214
  -0.37874823  -0.37495345  -0.37112981  -0.36315149  -0.35168135
  -0.34090739  -0.32793139  -0.32476098  -0.31774282  -0.30349278
  -0.29569921  -0.28814986  -0.27788774  -0.26526717  -0.26195752
  -0.25020655  -0.23638253  -0.23289285  -0.22109716  -0.19897936
  -0.18676376  -0.16299085  -0.10729444  -0.01259733   0.04582889
   0.07394672   0.07616275   0.11209121   0.12163943   0.16475027
   0.1934481    0.2348077    0.24519939   0.25112637   0.25724055
   0.28574243   0.29923618   0.3026667    0.31715116   0.321104
   0.32654863   0.33290723   0.3657359    0.37624391   0.38606215
   0.41257532   0.41535638   0.4188701    0.45056729   0.45700391
   0.46948718   0.48815584   0.49758638   0.51226751   0.52929363
   0.56167589   0.56332141   0.57814366   0.61562764   0.63106084
   0.637385     0.64337329   0.66991995   0.69987831   0.7101905
   0.72241066   0.73428266   0.78358282   0.79624722   0.85677322
   0.88865925   0.94121027   0.96520624   1.00312339]
nelec by numeric integration = 146.00000512609944
    CPU time for vxc     38.15 sec, wall time     15.98 sec
E1 = -4114.664160628328  Ecoul = 1902.3253454025532  Exc = -124.59099589326392
cycle= 7 E= -835.878696067464  delta_E= -2.23e-05  |g|= 0.00165  |ddm|= 0.0129
    CPU time for cycle= 7     38.61 sec, wall time     16.05 sec
  HOMO = -0.107323566646198  LUMO = -0.0125897217610364
  mo_energy =
[-10.0346098  -10.03365282 -10.02913079 -10.0254634  -10.02333844
 -10.02228693 -10.02111246 -10.02068762 -10.01830983 -10.01708523
 -10.01577713 -10.01112607 -10.01062301 -10.00999317 -10.00990748
 -10.0076036  -10.00389453 -10.00238555 -10.00142357 -10.0011374
  -9.99702269  -9.99632558  -0.86177957  -0.84326251  -0.82245247
  -0.79539646  -0.77093184  -0.73472298  -0.73322763  -0.71336002
  -0.69262254  -0.67933246  -0.63859805  -0.62395259  -0.58752414
  -0.58202052  -0.56561287  -0.55512469  -0.53645669  -0.52849331
  -0.48750753  -0.48450928  -0.47308358  -0.45375112  -0.4366251
  -0.43475227  -0.41933942  -0.40538419  -0.40231225  -0.39580361
  -0.37877041  -0.37496673  -0.37114966  -0.36314445  -0.35168508
  -0.34086726  -0.32792415  -0.32475074  -0.31769682  -0.30344914
  -0.29568211  -0.28814207  -0.27789457  -0.2652704   -0.26195104
  -0.25022597  -0.23635973  -0.23291127  -0.22106654  -0.19898991
  -0.18676851  -0.16298836  -0.10732357  -0.01258972   0.04582948
   0.07392753   0.07616915   0.11213584   0.12161857   0.16473636
   0.19347692   0.23481584   0.24523929   0.25116466   0.25728269
   0.28575222   0.29923871   0.30267554   0.31712885   0.32107125
   0.32654226   0.33292753   0.36574467   0.37624999   0.38609363
   0.41256109   0.41530995   0.41886503   0.45057493   0.4570634
   0.46947441   0.48813209   0.49758667   0.51226306   0.52926201
   0.56166599   0.56328913   0.57817907   0.61561881   0.63107563
   0.6373628    0.64337718   0.669904     0.69985685   0.71019029
   0.72247075   0.73424437   0.78357007   0.79628085   0.85680768
   0.88866153   0.94124231   0.96517989   1.00305923]
nelec by numeric integration = 146.00000512595437
    CPU time for vxc     38.28 sec, wall time     15.91 sec
E1 = -4114.665661470063  Ecoul = 1902.3268564412526  Exc = -124.5910068291784
cycle= 8 E= -835.878696806414  delta_E= -7.39e-07  |g|= 0.000832  |ddm|= 0.00309
    CPU time for cycle= 8     38.61 sec, wall time     15.97 sec
  HOMO = -0.107316738396967  LUMO = -0.0125636373956477
  mo_energy =
[-10.03454254 -10.03364546 -10.02914743 -10.02544957 -10.02347111
 -10.02227127 -10.02120422 -10.02072422 -10.0182705  -10.01717397
 -10.01578423 -10.01110888 -10.01055175 -10.00997933 -10.00997306
 -10.00762585 -10.0041186  -10.0022795  -10.00136207 -10.00103143
  -9.99703006  -9.99637868  -0.86176512  -0.84327487  -0.82248169
  -0.79541997  -0.77092711  -0.73472543  -0.73320959  -0.71337121
  -0.69264583  -0.67934026  -0.63859365  -0.62395912  -0.58751688
  -0.58203259  -0.56561869  -0.55513097  -0.5364409   -0.52850665
  -0.48750362  -0.48451981  -0.47308645  -0.4537561   -0.43665026
  -0.43477353  -0.41934253  -0.40539157  -0.40232305  -0.39580346
  -0.37875971  -0.37495863  -0.37115422  -0.36313997  -0.3516903
  -0.34086937  -0.32791833  -0.32476888  -0.31767154  -0.30344082
  -0.29570305  -0.28815593  -0.27791132  -0.26525378  -0.26195725
  -0.2502136   -0.23633126  -0.23291865  -0.22107407  -0.19899384
  -0.18679617  -0.16299832  -0.10731674  -0.01256364   0.04582381
   0.07391489   0.07616264   0.11211697   0.12160933   0.16476709
   0.19344525   0.23480227   0.24528056   0.25120129   0.25731412
   0.28575745   0.29922044   0.3026692    0.31712771   0.32107503
   0.32654948   0.33292105   0.36576372   0.37624582   0.38605217
   0.41256627   0.41530041   0.4188516    0.45056405   0.45705882
   0.46945139   0.48814061   0.49758272   0.51227133   0.52925027
   0.56165024   0.5632948    0.57815058   0.61563092   0.63105487
   0.63735262   0.64336691   0.66989557   0.69988322   0.71020822
   0.72240252   0.73422927   0.78358255   0.79626266   0.85682044
   0.88866823   0.94116166   0.96516033   1.00310405]
nelec by numeric integration = 146.000005125997
    CPU time for vxc     38.45 sec, wall time     15.93 sec
E1 = -4114.665545895094  Ecoul = 1902.3268010292852  Exc = -124.59106719844385
cycle= 9 E= -835.878697012677  delta_E= -2.06e-07  |g|= 0.000316  |ddm|= 0.00144
    CPU time for cycle= 9     38.95 sec, wall time     16.01 sec
  HOMO = -0.10732820833782  LUMO = -0.0125695136409873
  mo_energy =
[-10.0345694  -10.03364358 -10.02913048 -10.02546414 -10.02341108
 -10.02232698 -10.02117981 -10.02080692 -10.01826855 -10.0171738
 -10.01578546 -10.01109523 -10.01056302 -10.00996817 -10.00995289
 -10.00763132 -10.00407019 -10.00232046 -10.00138428 -10.0010785
  -9.99705133  -9.99640785  -0.86177622  -0.84328079  -0.82247746
  -0.79542075  -0.7709335   -0.73473256  -0.73322211  -0.71337786
  -0.69264482  -0.67935046  -0.6385983   -0.62396565  -0.58752292
  -0.58203213  -0.56562415  -0.55513461  -0.53645045  -0.52851318
  -0.48750997  -0.48452452  -0.47309049  -0.45375976  -0.43664592
  -0.43476971  -0.41934812  -0.40539567  -0.40232424  -0.39580806
  -0.37876803  -0.3749672   -0.37115908  -0.36314867  -0.35169435
  -0.34087479  -0.32792717  -0.32476695  -0.31768153  -0.30344367
  -0.29570215  -0.28815728  -0.27790962  -0.26526442  -0.2619623
  -0.25022317  -0.23634384  -0.23292362  -0.22108295  -0.19900081
  -0.18679617  -0.16300918  -0.10732821  -0.01256951   0.04581439
   0.07391203   0.07615621   0.1121115    0.12160493   0.16475224
   0.19344818   0.23480246   0.24526514   0.25119203   0.25730423
   0.28575509   0.29922222   0.30266582   0.3171233    0.32106937
   0.3265399    0.33291424   0.36575283   0.37624171   0.38606063
   0.4125569    0.41529739   0.41884908   0.4505631    0.45705285
   0.46944495   0.48813864   0.49757619   0.51226403   0.52924381
   0.56165173   0.56328602   0.57815081   0.61561849   0.63104282
   0.63734684   0.64335635   0.66989191   0.69986956   0.71019465
   0.72241401   0.73422855   0.78357347   0.79625422   0.85680973
   0.88865892   0.94118686   0.96516134   1.00308793]
nelec by numeric integration = 146.00000512597472
    CPU time for vxc     38.03 sec, wall time     15.89 sec
E1 = -4114.666398990739  Ecoul = 1902.3276612259647  Exc = -124.5910743338182
cycle= 10 E= -835.878697047017  delta_E= -3.43e-08  |g|= 7.84e-05  |ddm|= 0.00051
    CPU time for cycle= 10     38.36 sec, wall time     15.95 sec
  HOMO = -0.107329868465123  LUMO = -0.0125709883281455
  mo_energy =
[-10.03456918 -10.03365091 -10.02913548 -10.02546739 -10.02340606
 -10.02232708 -10.02117915 -10.02078965 -10.01828265 -10.01716844
 -10.01578643 -10.01110825 -10.01057599 -10.00996289 -10.00994465
 -10.00764367 -10.00407119 -10.00231804 -10.00138384 -10.00105581
  -9.99706451  -9.99640917  -0.8617805   -0.8432796   -0.82247775
  -0.79542016  -0.77093383  -0.73473584  -0.7332247   -0.71337878
  -0.69264223  -0.67935093  -0.63859889  -0.62396584  -0.58752635
  -0.58203209  -0.56562328  -0.55513535  -0.53645172  -0.5285129
  -0.48751097  -0.48452309  -0.47309249  -0.45376154  -0.43664266
  -0.43477028  -0.41934798  -0.40539644  -0.40232397  -0.39581038
  -0.3787679   -0.37497061  -0.37115867  -0.3631507   -0.3516952
  -0.34087586  -0.3279316   -0.32476716  -0.3176841   -0.30344627
  -0.29570292  -0.28815836  -0.27790947  -0.26526561  -0.26196371
  -0.25022439  -0.2363444   -0.23292715  -0.22108397  -0.1990014
  -0.18679348  -0.16301029  -0.10732987  -0.01257099   0.04581361
   0.07391416   0.07615529   0.11211144   0.12160054   0.16475188
   0.1934488    0.23480143   0.24526303   0.2511869    0.25729886
   0.28575322   0.29922042   0.30266431   0.31712137   0.32107064
   0.32654039   0.33291279   0.36574925   0.37623876   0.3860635
   0.41255449   0.41530132   0.41885164   0.45056418   0.45705151
   0.46944381   0.48813552   0.49757499   0.51226333   0.52924862
   0.56164985   0.563285     0.57815034   0.61561813   0.63104027
   0.63734761   0.64335656   0.66989089   0.69986571   0.71019225
   0.72241649   0.73422685   0.78356887   0.79625691   0.85681208
   0.88865473   0.94119003   0.96516226   1.00308321]
nelec by numeric integration = 146.00000512599686
    CPU time for vxc     38.62 sec, wall time     16.05 sec
E1 = -4114.666373324645  Ecoul = 1902.3276337725974  Exc = -124.59107254825537
cycle= 11 E= -835.878697048728  delta_E= -1.71e-09  |g|= 4.78e-05  |ddm|= 0.000166
    CPU time for cycle= 11     38.98 sec, wall time     16.11 sec
  HOMO = -0.107329157907683  LUMO = -0.0125692698597064
  mo_energy =
[-10.03456846 -10.03364828 -10.02913332 -10.02546214 -10.02341124
 -10.02232056 -10.02117842 -10.02078746 -10.01827606 -10.01717064
 -10.01578505 -10.01110121 -10.01057063 -10.00997021 -10.00995142
 -10.00763443 -10.00407077 -10.0023175  -10.00138548 -10.00106226
  -9.99705479  -9.99640845  -0.86177697  -0.84327984  -0.8224775
  -0.79542003  -0.7709337   -0.73473275  -0.73322265  -0.71337707
  -0.69264337  -0.67934911  -0.63859826  -0.62396485  -0.58752366
  -0.58203192  -0.56562288  -0.55513446  -0.53645093  -0.52851215
  -0.48751044  -0.4845228   -0.47309071  -0.45376025  -0.43664349
  -0.4347701   -0.41934755  -0.40539519  -0.40232384  -0.39580789
  -0.37876748  -0.37496783  -0.37115801  -0.36314868  -0.35169432
  -0.34087553  -0.32792756  -0.32476707  -0.31768399  -0.30344647
  -0.29570229  -0.28815735  -0.27790929  -0.26526499  -0.26196302
  -0.25022271  -0.23634509  -0.23292417  -0.22108284  -0.19900008
  -0.18679422  -0.16300811  -0.10732916  -0.01256927   0.04581558
   0.07391417   0.07615644   0.11211225   0.12160422   0.1647524
   0.19344875   0.23480198   0.24526285   0.25118793   0.25730053
   0.28575364   0.29922137   0.30266527   0.31712329   0.32107081
   0.32654091   0.3329135    0.36575203   0.3762412    0.38606254
   0.41255728   0.4152998    0.41885097   0.45056342   0.45705197
   0.46944608   0.48813731   0.49757736   0.51226461   0.52924742
   0.56165114   0.56328685   0.57815129   0.61561912   0.63104365
   0.6373481    0.64335775   0.6698921    0.69986853   0.71019432
   0.72241527   0.73422834   0.78357255   0.79625606   0.85681052
   0.88865823   0.941188     0.96516145   1.00308627]
nelec by numeric integration = 146.00000512599087
    CPU time for vxc     38.03 sec, wall time     15.86 sec
E1 = -4114.666226618684  Ecoul = 1902.3274858674476  Exc = -124.59107134985295
cycle= 12 E= -835.878697049514  delta_E= -7.86e-10  |g|= 1.54e-05  |ddm|= 8.64e-05
    CPU time for cycle= 12     38.40 sec, wall time     15.92 sec
  HOMO = -0.107329201377958  LUMO = -0.0125690147216929
  mo_energy =
[-10.03456939 -10.03364572 -10.02913259 -10.025463   -10.02341293
 -10.02232004 -10.02117974 -10.02078978 -10.01827579 -10.01717013
 -10.01578338 -10.01110007 -10.01056938 -10.00996843 -10.00994958
 -10.00763511 -10.00407237 -10.00231939 -10.00138378 -10.00106155
  -9.99705319  -9.99640375  -0.86177668  -0.84327967  -0.82247749
  -0.7954197   -0.77093314  -0.73473239  -0.73322226  -0.71337647
  -0.69264355  -0.67934867  -0.6385984   -0.62396465  -0.5875233
  -0.58203166  -0.56562278  -0.55513387  -0.53645077  -0.52851167
  -0.4875104   -0.48452271  -0.47309077  -0.45375938  -0.43664365
  -0.43477007  -0.41934739  -0.40539487  -0.4023236   -0.39580812
  -0.37876728  -0.37496738  -0.37115772  -0.3631484   -0.35169393
  -0.34087519  -0.32792733  -0.32476711  -0.31768335  -0.30344637
  -0.29570235  -0.28815725  -0.27790933  -0.26526445  -0.26196182
  -0.25022274  -0.23634486  -0.23292369  -0.22108239  -0.19899975
  -0.18679435  -0.16300754  -0.1073292   -0.01256901   0.045816
   0.07391425   0.07615673   0.11211286   0.12160483   0.16475261
   0.19344864   0.23480209   0.24526308   0.25118825   0.25730086
   0.28575355   0.2992218    0.30266572   0.31712335   0.32107087
   0.326541     0.33291469   0.36575191   0.37624143   0.38606185
   0.41255757   0.41530013   0.41885118   0.45056337   0.45705171
   0.46944715   0.48813759   0.49757719   0.51226485   0.52924733
   0.56165142   0.56328674   0.57815103   0.61561937   0.63104507
   0.63734834   0.64335875   0.66989256   0.69986869   0.71019466
   0.72241462   0.73422935   0.78357295   0.796256     0.85681109
   0.88865885   0.94118708   0.96516303   1.00308628]
nelec by numeric integration = 146.00000512598749
    CPU time for vxc     37.89 sec, wall time     15.83 sec
E1 = -4114.666236914143  Ecoul = 1902.327495993518  Exc = -124.59107118053143
cycle= 13 E= -835.878697049581  delta_E= -6.73e-11  |g|= 8.65e-06  |ddm|= 3.41e-05
    CPU time for cycle= 13     38.32 sec, wall time     15.90 sec
  HOMO = -0.107329180674984  LUMO = -0.0125690787805366
  mo_energy =
[-10.03456708 -10.03364851 -10.0291337  -10.02546326 -10.02341094
 -10.02232212 -10.02117965 -10.02078843 -10.01827679 -10.01717035
 -10.01578569 -10.0111047  -10.01057005 -10.00996843 -10.00994992
 -10.00763525 -10.00407051 -10.00231404 -10.00138606 -10.00106264
  -9.99705502  -9.99640786  -0.86177732  -0.84327969  -0.82247755
  -0.79542008  -0.77093348  -0.73473325  -0.73322267  -0.71337729
  -0.69264317  -0.67934954  -0.63859797  -0.62396523  -0.58752401
  -0.58203189  -0.56562319  -0.55513452  -0.53645058  -0.52851244
  -0.48751021  -0.48452293  -0.47309097  -0.4537604   -0.43664372
  -0.43477008  -0.41934768  -0.40539546  -0.40232366  -0.39580835
  -0.37876745  -0.37496807  -0.37115822  -0.36314886  -0.35169434
  -0.34087537  -0.32792847  -0.32476699  -0.31768359  -0.30344566
  -0.29570237  -0.28815752  -0.27790925  -0.26526477  -0.26196294
  -0.25022281  -0.23634429  -0.23292456  -0.22108285  -0.19900027
  -0.18679426  -0.16300843  -0.10732918  -0.01256908   0.04581527
   0.073914     0.07615628   0.11211232   0.12160378   0.16475293
   0.19344853   0.23480201   0.2452635    0.2511886    0.25730102
   0.28575422   0.29922138   0.30266515   0.31712304   0.32107067
   0.3265409    0.33291359   0.36575153   0.37624079   0.38606248
   0.41255672   0.41529977   0.41885099   0.45056331   0.45705229
   0.46944581   0.48813699   0.49757674   0.51226435   0.52924716
   0.56165081   0.56328662   0.5781509    0.61561945   0.63104339
   0.63734794   0.6433576    0.66989186   0.69986875   0.71019458
   0.7224151    0.73422819   0.78357197   0.79625611   0.85681068
   0.88865769   0.94118784   0.96516166   1.00308662]
nelec by numeric integration = 146.00000512599513
    CPU time for vxc     38.44 sec, wall time     15.97 sec
E1 = -4114.666249887889  Ecoul = 1902.327509874568  Exc = -124.59107208770239
Extra cycle  E= -835.878697049448  delta_E= 1.34e-10  |g|= 2.11e-05  |ddm|= 4.74e-05
    CPU time for scf_cycle    589.32 sec, wall time    242.39 sec
    CPU time for SCF    589.32 sec, wall time    242.39 sec
converged SCF energy = -835.878697049448
nelec by numeric integration = 146.00000512599513
    CPU time for vxc     38.99 sec, wall time     16.15 sec
 ** Mulliken pop  **
pop of  0 C 1s            1.99096
pop of  0 C 2s            1.15154
pop of  0 C 2px           0.97880
pop of  0 C 2py           0.92429
pop of  0 C 2pz           0.92944
pop of  1 C 1s            1.99031
pop of  1 C 2s            1.07596
pop of  1 C 2px           1.01676
pop of  1 C 2py           0.98925
pop of  1 C 2pz           0.95789
pop of  2 C 1s            1.99112
pop of  2 C 2s            1.20595
pop of  2 C 2px           0.98492
pop of  2 C 2py           0.93714
pop of  2 C 2pz           0.97718
pop of  3 C 1s            1.99084
pop of  3 C 2s            1.16902
pop of  3 C 2px           1.00905
pop of  3 C 2py           0.93589
pop of  3 C 2pz           0.96624
pop of  4 C 1s            1.99094
pop of  4 C 2s            1.08584
pop of  4 C 2px           1.00606
pop of  4 C 2py           0.97923
pop of  4 C 2pz           1.00577
pop of  5 C 1s            1.99125
pop of  5 C 2s            1.17266
pop of  5 C 2px           0.97076
pop of  5 C 2py           0.94540
pop of  5 C 2pz           0.95034
pop of  6 C 1s            1.99102
pop of  6 C 2s            1.11866
pop of  6 C 2px           0.99381
pop of  6 C 2py           1.03322
pop of  6 C 2pz           0.98231
pop of  7 C 1s            1.99113
pop of  7 C 2s            1.17471
pop of  7 C 2px           0.99361
pop of  7 C 2py           1.00403
pop of  7 C 2pz           0.92572
pop of  8 C 1s            1.99059
pop of  8 C 2s            1.10222
pop of  8 C 2px           0.97936
pop of  8 C 2py           0.96099
pop of  8 C 2pz           0.97186
pop of  9 C 1s            1.99082
pop of  9 C 2s            1.12557
pop of  9 C 2px           1.01272
pop of  9 C 2py           0.92132
pop of  9 C 2pz           0.95840
pop of  10 C 1s           1.99097
pop of  10 C 2s           1.06319
pop of  10 C 2px          1.04424
pop of  10 C 2py          0.97982
pop of  10 C 2pz          1.05452
pop of  11 C 1s           1.99119
pop of  11 C 2s           1.20813
pop of  11 C 2px          0.95121
pop of  11 C 2py          0.92990
pop of  11 C 2pz          0.97586
pop of  12 C 1s           1.99063
pop of  12 C 2s           1.08154
pop of  12 C 2px          0.99434
pop of  12 C 2py          0.97085
pop of  12 C 2pz          0.97704
pop of  13 C 1s           1.99067
pop of  13 C 2s           1.13030
pop of  13 C 2px          1.01140
pop of  13 C 2py          0.96414
pop of  13 C 2pz          0.91372
pop of  14 C 1s           1.99164
pop of  14 C 2s           1.21983
pop of  14 C 2px          0.95579
pop of  14 C 2py          0.91465
pop of  14 C 2pz          0.92697
pop of  15 C 1s           1.99095
pop of  15 C 2s           1.11135
pop of  15 C 2px          1.02803
pop of  15 C 2py          0.96814
pop of  15 C 2pz          0.96606
pop of  16 C 1s           1.99055
pop of  16 C 2s           1.12481
pop of  16 C 2px          1.00749
pop of  16 C 2py          0.93584
pop of  16 C 2pz          0.94905
pop of  17 C 1s           1.99066
pop of  17 C 2s           1.11686
pop of  17 C 2px          0.98535
pop of  17 C 2py          0.96608
pop of  17 C 2pz          0.96061
pop of  18 C 1s           1.99076
pop of  18 C 2s           1.10038
pop of  18 C 2px          1.00548
pop of  18 C 2py          0.97853
pop of  18 C 2pz          1.00223
pop of  19 C 1s           1.99155
pop of  19 C 2s           1.24769
pop of  19 C 2px          0.95735
pop of  19 C 2py          0.92430
pop of  19 C 2pz          0.93859
pop of  20 C 1s           1.99073
pop of  20 C 2s           1.08865
pop of  20 C 2px          1.01522
pop of  20 C 2py          1.02433
pop of  20 C 2pz          0.97887
pop of  21 C 1s           1.99123
pop of  21 C 2s           1.19636
pop of  21 C 2px          0.99418
pop of  21 C 2py          0.94303
pop of  21 C 2pz          0.92489
pop of  22 H 1s           0.90823
pop of  23 H 1s           0.91914
pop of  24 H 1s           0.92616
pop of  25 H 1s           0.94562
pop of  26 H 1s           0.89426
pop of  27 H 1s           0.91003
pop of  28 H 1s           0.87474
pop of  29 H 1s           0.91251
pop of  30 H 1s           0.97573
pop of  31 H 1s           0.96295
pop of  32 H 1s           0.92088
pop of  33 H 1s           0.91255
pop of  34 H 1s           0.90474
pop of  35 H 1s           0.94087
 ** Mulliken atomic charges  **
charge of    0C =      0.02496
charge of    1C =     -0.03017
charge of    2C =     -0.09631
charge of    3C =     -0.07104
charge of    4C =     -0.06783
charge of    5C =     -0.03042
charge of    6C =     -0.11903
charge of    7C =     -0.08920
charge of    8C =     -0.00503
charge of    9C =     -0.00883
charge of   10C =     -0.13274
charge of   11C =     -0.05630
charge of   12C =     -0.01439
charge of   13C =     -0.01023
charge of   14C =     -0.00887
charge of   15C =     -0.06452
charge of   16C =     -0.00773
charge of   17C =     -0.01956
charge of   18C =     -0.07739
charge of   19C =     -0.05947
charge of   20C =     -0.09779
charge of   21C =     -0.04969
charge of   22H =      0.09177
charge of   23H =      0.08086
charge of   24H =      0.07384
charge of   25H =      0.05438
charge of   26H =      0.10574
charge of   27H =      0.08997
charge of   28H =      0.12526
charge of   29H =      0.08749
charge of   30H =      0.02427
charge of   31H =      0.03705
charge of   32H =      0.07912
charge of   33H =      0.08745
charge of   34H =      0.09526
charge of   35H =      0.05913
Dipole moment(X, Y, Z, Debye): -0.08889,  0.07885, -0.30000
nelec by numeric integration = 146.00000512599513
    CPU time for vxc     38.16 sec, wall time     15.95 sec
E1 = -4114.666249887889  Ecoul = 1902.3275098745685  Exc = -124.59107208770239
nelec by numeric integration = 146.00000512599513
    CPU time for vxc     38.74 sec, wall time     15.99 sec
E1 = -4114.666249887889  Ecoul = 1902.3275098745687  Exc = -124.5910720877024
