System: uname_result(system='Linux', node='cosmopc18', release='5.15.0-97-generic', version='#107-Ubuntu SMP Wed Feb 7 13:26:48 UTC 2024', machine='x86_64')  Threads 4
Python 3.11.8 (main, Feb 26 2024, 21:39:34) [GCC 11.2.0]
numpy 1.26.4  scipy 1.11.4
Date: Tue Apr  9 15:17:36 2024
PySCF version 2.3.0
PySCF path  /home/saade/miniconda3/envs/tutorial/lib/python3.11/site-packages/pyscf

[ENV] PYSCFAD_BACKEND torch
[CONFIG] conf_file None
[INPUT] verbose = 5
[INPUT] max_memory = 4000 
[INPUT] num. atoms = 36
[INPUT] num. electrons = 146
[INPUT] charge = 0
[INPUT] spin (= nelec alpha-beta = 2S) = 0
[INPUT] symmetry False subgroup None
[INPUT] Mole.unit = angstrom
[INPUT] Symbol           X                Y                Z      unit          X                Y                Z       unit  Magmom
[INPUT]  1 C     -0.102254000000   3.832387000000   0.831678000000 AA   -0.193232055141   7.242161833344   1.571643643826 Bohr   0.0
[INPUT]  2 C     -0.024233000000   3.711047000000  -0.633672000000 AA   -0.045793733177   7.012862465389  -1.197466532805 Bohr   0.0
[INPUT]  3 C     -0.117371000000   4.785930000000   1.507673000000 AA   -0.221799044966   9.044096951340   2.849089055401 Bohr   0.0
[INPUT]  4 C     -0.166744000000   2.359593000000   1.430641000000 AA   -0.315100492914   4.458984535441   2.703519672574 Bohr   0.0
[INPUT]  5 C      0.304988000000   5.068432000000  -1.425693000000 AA    0.576343791279   9.577948360982  -2.694169307710 Bohr   0.0
[INPUT]  6 C      0.147107000000   2.650279000000  -1.381811000000 AA    0.277991941006   5.008301463686  -2.611244345911 Bohr   0.0
[INPUT]  7 C     -0.109296000000   6.091789000000  -0.680257000000 AA   -0.206539506510  11.511812818638  -1.285499424318 Bohr   0.0
[INPUT]  8 C     -0.121810000000   6.131841000000   0.807265000000 AA   -0.230187539233  11.587500129379   1.525509759947 Bohr   0.0
[INPUT]  9 C     -0.048758000000   1.338485000000   0.827907000000 AA   -0.092139266382   2.529370071838   1.564517486610 Bohr   0.0
[INPUT] 10 C      0.201973000000   1.240587000000  -0.637909000000 AA    0.381673654557   2.344369663696  -1.205473302395 Bohr   0.0
[INPUT] 11 C      0.069473000000  -0.035448000000   1.549833000000 AA    0.131284943052  -0.066987011664   2.928759908813 Bohr   0.0
[INPUT] 12 C      0.224750000000  -0.025732000000  -1.417027000000 AA    0.424715946496  -0.048626432637  -2.677792941114 Bohr   0.0
[INPUT] 13 C     -0.053319000000  -1.307040000000   0.723282000000 AA   -0.100758307236  -2.469947633852   1.366804890828 Bohr   0.0
[INPUT] 14 C     -0.195456000000  -1.285404000000  -0.858638000000 AA   -0.369358309403  -2.429061519420  -1.622590660144 Bohr   0.0
[INPUT] 15 C      0.106394000000  -2.397149000000   1.380137000000 AA    0.201055521297  -4.529955089775   2.608080944379 Bohr   0.0
[INPUT] 16 C      0.029065000000  -2.370835000000  -1.364340000000 AA    0.054924889810  -4.480228836533  -2.578228940789 Bohr   0.0
[INPUT] 17 C     -0.026104000000  -3.708948000000   0.748980000000 AA   -0.049329410756  -7.008895930253   1.415367072777 Bohr   0.0
[INPUT] 18 C      0.013726000000  -3.708313000000  -0.750683000000 AA    0.025938380786  -7.007695954164  -1.418585276367 Bohr   0.0
[INPUT] 19 C     -0.028017000000  -4.734297000000   1.341560000000 AA   -0.052944456832  -8.946524722350   2.535180979672 Bohr   0.0
[INPUT] 20 C     -0.076952000000  -4.970135000000  -1.446128000000 AA   -0.145418204738  -9.392193952115  -2.732785861065 Bohr   0.0
[INPUT] 21 C     -0.011491000000  -6.053340000000   0.778755000000 AA   -0.021714842897 -11.439154738875   1.471633668136 Bohr   0.0
[INPUT] 22 C     -0.094315000000  -6.196943000000  -0.623526000000 AA   -0.178229519438 -11.710525079541  -1.178293371546 Bohr   0.0
[INPUT] 23 H      0.091401000000   4.920310000000   2.536935000000 AA    0.172722857511   9.298038347959   4.794112345823 Bohr   0.0
[INPUT] 24 H      0.019010000000   2.670525000000   2.558611000000 AA    0.035923693628   5.046560858804   4.835074049300 Bohr   0.0
[INPUT] 25 H      0.107962000000   4.854811000000  -2.417837000000 AA    0.204018611860   9.174263176526  -4.569049743840 Bohr   0.0
[INPUT] 26 H      0.115886000000   2.579350000000  -2.419721000000 AA    0.218992801671   4.874265079397  -4.572609987859 Bohr   0.0
[INPUT] 27 H      0.097374000000   7.088940000000  -1.247188000000 AA    0.184010191653  13.396155113474  -2.356843745844 Bohr   0.0
[INPUT] 28 H      0.093943000000   7.024052000000   1.238046000000 AA    0.177526541320  13.273534564703   2.339567869613 Bohr   0.0
[INPUT] 29 H      0.012243000000  -0.031030000000   2.391775000000 AA    0.023135916943  -0.058638201645   4.519799701582 Bohr   0.0
[INPUT] 30 H      0.128157000000   0.139649000000  -2.420154000000 AA    0.242181630946   0.263898363569  -4.573428239271 Bohr   0.0
[INPUT] 31 H     -0.039245000000  -2.507179000000   2.324394000000 AA   -0.074162301759  -4.737881655261   4.392468065582 Bohr   0.0
[INPUT] 32 H      0.033930000000  -2.407725000000  -2.438146000000 AA    0.064118407406  -4.549940833268  -4.607428191704 Bohr   0.0
[INPUT] 33 H     -0.090178000000  -4.998677000000   2.601802000000 AA   -0.170411722461  -9.446130515163   4.916693210346 Bohr   0.0
[INPUT] 34 H     -0.001892000000  -4.912974000000  -2.404877000000 AA   -0.003575361828  -9.284175317109  -4.544558893266 Bohr   0.0
[INPUT] 35 H     -0.089412000000  -7.152500000000   1.188136000000 AA   -0.168964192250 -13.516266105952   2.245251638736 Bohr   0.0
[INPUT] 36 H     -0.176493000000  -6.815879000000  -1.232476000000 AA   -0.333523432903 -12.880144608174  -2.329042095099 Bohr   0.0
[INPUT] ---------------- BASIS SET ---------------- 
[INPUT] l, kappa, [nprim/nctr], expnt,             c_1 c_2 ...
[INPUT] H
[INPUT] 0    0    [3    /1   ]  3.42525091        0.15432897
                                0.62391373        0.53532814
                                0.1688554         0.44463454
[INPUT] C
[INPUT] 0    0    [3    /1   ]  71.616837         0.15432897
                                13.045096         0.53532814
                                3.5305122         0.44463454
[INPUT] 0    0    [3    /1   ]  2.9412494         -0.09996723
                                0.6834831         0.39951283
                                0.2222899         0.70011547
[INPUT] 1    0    [3    /1   ]  2.9412494         0.15591627
                                0.6834831         0.60768372
                                0.2222899         0.39195739

nuclear repulsion = 1489.74453514444
number of shells = 80
number of NR pGTOs = 372
number of NR cGTOs = 124
basis = sto3g
ecp = {}
CPU time:     49119.81
atom C rad-grids = 99, ang-grids = [ 50  50  50  50  50  50  50  50  50  50  50  50  50  50  50  50  50  50
  50  50  50  50  50  50  50  50  50  50  50  50  50  86  86  86  86  86
  86  86  86  86  86  86  86 434 434 434 434 434 434 434 434 434 590 590
 590 590 590 590 590 590 590 590 590 590 590 590 590 590 590 590 590 590
 590 590 590 590 590 590 590 434 434 434 434 434 434 434 434 434 434 434
 434 434 434 434 434 434 434 434 434]
atom H rad-grids = 99, ang-grids = [ 50  50  50  50  50  50  50  50  50  50  50  50  50  50  50  50  50  50
  50  50  50  50  50  50  50  50  50  50  86  86  86  86  86  86  86 434
 434 434 434 434 434 434 434 590 590 590 590 590 590 590 590 590 590 590
 590 590 590 590 590 590 590 590 590 590 590 590 590 590 590 434 434 434
 434 434 434 434 434 434 434 434 434 434 434 434 434 434 434 434 434 434
 434 434 434 434 434 434 434 434 434]
tot_boxes 5270, boxes in each direction [ 8 29 15]
Padding 0 grids
tot grids = 1157832


******** <class 'pyscf.dft.rks.RKS'> ********
method = RKS
initial guess = minao
damping factor = 0
level_shift factor = 0
DIIS = <class 'pyscf.scf.diis.CDIIS'>
diis_start_cycle = 1
diis_space = 8
SCF conv_tol = 1e-10
SCF conv_tol_grad = None
SCF max_cycles = 50
direct_scf = True
direct_scf_tol = 1e-13
chkfile to save SCF result = /home/saade/mlelec/tutorials/tmpjmz1qapn
max_memory 4000 MB (current use 638 MB)
XC library pyscf.dft.libxc version 6.1.0
    S. Lehtola, C. Steigemann, M. J.T. Oliveira, and M. A.L. Marques.,  SoftwareX 7, 1–5 (2018)
XC functionals = b3lypg
    P. J. Stephens, F. J. Devlin, C. F. Chabalowski, and M. J. Frisch.,  J. Phys. Chem. 98, 11623 (1994)
radial grids: 
    Treutler-Ahlrichs [JCP 102, 346 (1995); DOI:10.1063/1.469408] (M4) radial grids
    
becke partition: Becke, JCP 88, 2547 (1988); DOI:10.1063/1.454033
pruning grids: <function nwchem_prune at 0x7f9db5616ca0>
grids dens level: 3
symmetrized grids: False
atomic radii adjust function: <function treutler_atomic_radii_adjust at 0x7f9db5617380>
User specified grid scheme (99, 590)
small_rho_cutoff = 1e-07
Set gradient conv threshold to 1e-05
Initial guess from minao.
nelec by numeric integration = 145.26404989197044
    CPU time for vxc     37.16 sec, wall time     15.61 sec
E1 = -4079.09366957889  Ecoul = 1874.0999785957092  Exc = -126.09554033214074
init E= -841.344696170886
cond(S) = 22.13545931287367
    CPU time for initialize scf     46.88 sec, wall time     18.00 sec
  HOMO = -0.19790275751883  LUMO = -0.172925110112663
  mo_energy =
[-10.13046158 -10.12988571 -10.12837087 -10.12716854 -10.12658894
 -10.12557634 -10.12387288 -10.11813205 -10.11706507 -10.11320078
 -10.10463843 -10.10370024 -10.10201267 -10.09794055 -10.09586847
 -10.09134522 -10.08886521 -10.0846372  -10.08318022 -10.08039649
 -10.07667321 -10.07415662  -1.08941794  -1.07036684  -1.02481723
  -0.99354962  -0.965954    -0.94386416  -0.91137655  -0.88749258
  -0.88553866  -0.8347698   -0.80375894  -0.77591042  -0.72754245
  -0.70436403  -0.69276664  -0.6812091   -0.67494238  -0.65458176
  -0.59653126  -0.58521906  -0.5800943   -0.56568222  -0.55112109
  -0.5280464   -0.52403112  -0.51788397  -0.49339977  -0.48490766
  -0.47990726  -0.46702442  -0.46065761  -0.45629164  -0.45182643
  -0.44382257  -0.43211775  -0.42553942  -0.41320871  -0.39724197
  -0.3851618   -0.37787243  -0.37144877  -0.36494923  -0.35605867
  -0.34827808  -0.32419206  -0.31051728  -0.29903131  -0.2874554
  -0.27516944  -0.24368493  -0.19790276  -0.17292511  -0.11257643
  -0.05959339  -0.05330071  -0.02821815  -0.01226901   0.01226735
   0.03401867   0.07505451   0.08387646   0.11000474   0.12766866
   0.14132986   0.15716393   0.16908518   0.1938697    0.21966792
   0.22239569   0.23884133   0.2615194    0.26627535   0.26689253
   0.27669629   0.2996596    0.30699486   0.32770766   0.33460185
   0.35940894   0.3693181    0.37367704   0.38617907   0.40021977
   0.42424248   0.44397175   0.47384953   0.48868528   0.49530914
   0.51778662   0.53033151   0.5438415    0.56491109   0.57572727
   0.58977895   0.60897623   0.66132595   0.69140791   0.72900765
   0.77698753   0.81322464   0.86633799   0.89652069]
nelec by numeric integration = 146.00000054228983
    CPU time for vxc     38.53 sec, wall time     16.09 sec
E1 = -4095.3467080599385  Ecoul = 1894.80565999059  Exc = -124.7722211126659
cycle= 1 E= -835.568734037579  delta_E= 5.78  |g|= 0.407  |ddm|= 9.25
    CPU time for cycle= 1     38.93 sec, wall time     16.16 sec
  HOMO = -0.0825535208787457  LUMO = 0.0205332707719967
  mo_energy =
[-10.18738734 -10.07120644 -10.04561002 -10.03538687 -10.03197871
 -10.03032992 -10.02493598 -10.02113774 -10.01636871  -9.99034433
  -9.98230431  -9.98203359  -9.974842    -9.96400699  -9.95336738
  -9.94047049  -9.93547655  -9.92949646  -9.92894166  -9.88369101
  -9.83152402  -9.75927263  -0.86933571  -0.79247907  -0.78569151
  -0.78197388  -0.76035336  -0.71782071  -0.70822819  -0.69143842
  -0.67814055  -0.64560778  -0.64185179  -0.59665126  -0.57752648
  -0.56711889  -0.54323174  -0.53762208  -0.51325     -0.50738475
  -0.50065589  -0.49105624  -0.45474287  -0.44582629  -0.43495298
  -0.43193267  -0.40958007  -0.40245723  -0.38729656  -0.3834018
  -0.37077952  -0.36941503  -0.34530446  -0.33614213  -0.32014872
  -0.3192699   -0.30548755  -0.29479605  -0.28611383  -0.2817252
  -0.27952653  -0.26983707  -0.26083651  -0.24072683  -0.23359177
  -0.2054982   -0.20174371  -0.18246238  -0.16838317  -0.15658501
  -0.14826506  -0.12367293  -0.08255352   0.02053327   0.04433167
   0.06830678   0.09064029   0.12529131   0.14164941   0.20099509
   0.22433194   0.23739956   0.25333414   0.26293015   0.27445661
   0.30529454   0.31790865   0.32403692   0.35273829   0.35436745
   0.36403755   0.37538145   0.40432774   0.41497567   0.42366961
   0.45128267   0.45504942   0.46375055   0.48131582   0.496398
   0.50883963   0.51939825   0.52793515   0.53284545   0.53978189
   0.55801921   0.57842721   0.61226689   0.63268135   0.65413593
   0.66335924   0.69252317   0.69549334   0.72632085   0.77956284
   0.785299     0.80045904   0.83908339   0.87452097   0.94221889
   0.97999115   1.00036726   1.08464765   1.10865562]
nelec by numeric integration = 146.00000055429325
    CPU time for vxc     39.13 sec, wall time     16.72 sec
E1 = -4085.5934107789017  Ecoul = 1885.429472006522  Exc = -124.70644321767861
cycle= 2 E= -835.125846845623  delta_E= 0.443  |g|= 0.981  |ddm|= 2.74
    CPU time for cycle= 2     39.72 sec, wall time     16.81 sec
  HOMO = -0.079211205321099  LUMO = -0.0384751983678822
  mo_energy =
[-10.02733031 -10.02558656 -10.01947074 -10.01909847 -10.01837124
 -10.01801535 -10.01396788 -10.01030115 -10.005627   -10.00266267
  -9.99943008  -9.99460646  -9.99236552  -9.99090175  -9.98966743
  -9.98818061  -9.9858303   -9.98253722  -9.98233653  -9.97809401
  -9.97380946  -9.96987078  -0.83796079  -0.82238734  -0.79843274
  -0.77602095  -0.75698863  -0.74023938  -0.72265611  -0.70404382
  -0.70207359  -0.66814393  -0.64457596  -0.62397578  -0.59111891
  -0.56790008  -0.56102485  -0.550567    -0.54531593  -0.52470476
  -0.48162674  -0.47350123  -0.46914252  -0.45868624  -0.45092283
  -0.42988414  -0.41898885  -0.41100539  -0.39229653  -0.38273654
  -0.38135213  -0.36363691  -0.3563905   -0.35225836  -0.35186839
  -0.34502827  -0.3332453   -0.3277492   -0.31086135  -0.29813937
  -0.28957713  -0.28259693  -0.27451846  -0.26798707  -0.25404604
  -0.24107859  -0.23424449  -0.20795714  -0.19761216  -0.18654029
  -0.17900972  -0.13922148  -0.07921121  -0.0384752    0.02684712
   0.07951548   0.09264563   0.1173803    0.13839914   0.16342569
   0.18576114   0.22387883   0.22897643   0.24377237   0.27701473
   0.29629116   0.30802192   0.31907248   0.34533447   0.34598585
   0.36576949   0.3789016    0.39231243   0.41217856   0.41449255
   0.42349      0.44763477   0.4550161    0.47090599   0.4807409
   0.50122782   0.50702926   0.51599958   0.52594388   0.5435996
   0.56818632   0.57268486   0.60693009   0.62612724   0.64051303
   0.65865079   0.67289261   0.68367075   0.71297414   0.72527312
   0.73718728   0.75615798   0.81395258   0.83178084   0.86048973
   0.93825271   0.97213479   1.02447679   1.06231001]
nelec by numeric integration = 146.0000006070479
    CPU time for vxc     39.68 sec, wall time     16.70 sec
E1 = -4091.2103638889935  Ecoul = 1890.4781055774333  Exc = -124.64038957284517
cycle= 3 E= -835.62811273997  delta_E= -0.502  |g|= 0.22  |ddm|= 2.43
    CPU time for cycle= 3     40.06 sec, wall time     16.76 sec
  HOMO = -0.0867714870825662  LUMO = -0.0434774924764732
  mo_energy =
[-10.04149667 -10.03477937 -10.03215369 -10.02951818 -10.02865523
 -10.02231882 -10.02170651 -10.01934784 -10.01644461 -10.01366684
 -10.01362038 -10.01249794 -10.01243496 -10.01046121 -10.00996275
 -10.00798005 -10.00689382 -10.00477774 -10.00257893 -10.00121068
  -9.99958752  -9.97797812  -0.84756999  -0.84299947  -0.80732141
  -0.78651787  -0.76312635  -0.75827604  -0.72942751  -0.71595093
  -0.70790344  -0.67310284  -0.64112143  -0.63857065  -0.59536553
  -0.57727949  -0.56502735  -0.55971658  -0.54972443  -0.53686773
  -0.49211659  -0.48177173  -0.47430442  -0.46513124  -0.45761208
  -0.43350499  -0.43041009  -0.41688269  -0.39673539  -0.39451292
  -0.38580058  -0.37182742  -0.36851826  -0.36287505  -0.35969907
  -0.35662636  -0.34861552  -0.33024608  -0.31760165  -0.30773021
  -0.29235527  -0.28858389  -0.28519001  -0.2762548   -0.25941779
  -0.25723055  -0.23893509  -0.22382412  -0.20509148  -0.19318123
  -0.18919387  -0.1478906   -0.08677149  -0.04347749   0.01904676
   0.07307467   0.08577388   0.0989429    0.12449527   0.15806503
   0.17637691   0.21565102   0.22254705   0.23832647   0.26960075
   0.28462075   0.29872584   0.31045027   0.32807872   0.35175423
   0.36006675   0.37681263   0.37985868   0.40882469   0.41090496
   0.42065171   0.43881465   0.44652879   0.46503466   0.47756695
   0.49119017   0.49681146   0.51033124   0.51406934   0.53851544
   0.56032181   0.56428615   0.59068898   0.61453338   0.63440143
   0.65277307   0.65630718   0.6773917    0.70390273   0.72157001
   0.7240436    0.75016644   0.79485201   0.83658513   0.85575274
   0.92594799   0.9585548    1.00905272   1.03863361]
nelec by numeric integration = 146.0000005840833
    CPU time for vxc     39.33 sec, wall time     16.47 sec
E1 = -4090.7280686916356  Ecoul = 1890.0268484877395  Exc = -124.67013461062226
cycle= 4 E= -835.626819670083  delta_E= 0.00129  |g|= 0.229  |ddm|=  0.9
    CPU time for cycle= 4     39.95 sec, wall time     16.57 sec
  HOMO = -0.0920282565581282  LUMO = -0.0477102950641945
  mo_energy =
[-10.03595758 -10.0325789  -10.0313776  -10.03112742 -10.02657949
 -10.02500991 -10.02318031 -10.02165025 -10.02070515 -10.01742934
 -10.01538553 -10.0150797  -10.01389767 -10.01195961 -10.01137476
 -10.0101891  -10.00828168 -10.00689792 -10.00440031 -10.00014065
  -9.9965521   -9.98874125  -0.84647737  -0.84102759  -0.80756422
  -0.78872286  -0.76478894  -0.75409833  -0.732389    -0.71577257
  -0.70729438  -0.67400477  -0.65003613  -0.63815721  -0.59754119
  -0.5761779   -0.56512383  -0.55981205  -0.54975983  -0.53513007
  -0.49163691  -0.4814779   -0.47609798  -0.46476405  -0.45916396
  -0.43540711  -0.42840409  -0.41811915  -0.39821202  -0.3901032
  -0.38686373  -0.37245997  -0.36887445  -0.36406431  -0.35945664
  -0.35565552  -0.3479007   -0.33370346  -0.31930196  -0.30789871
  -0.29426431  -0.29043957  -0.2870653   -0.27607941  -0.26241069
  -0.25412182  -0.24018317  -0.2235068   -0.2066685   -0.19481417
  -0.18943972  -0.14899456  -0.09202826  -0.0477103    0.0188914
   0.07235182   0.08361571   0.09962671   0.12695697   0.15452375
   0.1754448    0.21512128   0.2206178    0.23736642   0.27131311
   0.28449332   0.29903701   0.31027404   0.32930962   0.34776879
   0.3600391    0.37369594   0.37961711   0.40687148   0.40860879
   0.41616366   0.43743909   0.44571441   0.46361182   0.47955544
   0.49167741   0.49731664   0.50917352   0.5150857    0.54040427
   0.56011984   0.56223972   0.59367512   0.6166749    0.6339534
   0.65285107   0.65940653   0.67736472   0.70494109   0.71897765
   0.72365691   0.74786438   0.80000531   0.82683364   0.85096124
   0.92990148   0.95565851   1.01248285   1.03786193]
nelec by numeric integration = 146.00000060330288
    CPU time for vxc     38.32 sec, wall time     15.95 sec
E1 = -4091.0661895352814  Ecoul = 1890.3386999857726  Exc = -124.66472942688588
cycle= 5 E= -835.64768383196  delta_E= -0.0209  |g|= 0.0792  |ddm|= 0.478
    CPU time for cycle= 5     38.94 sec, wall time     16.05 sec
  HOMO = -0.0913495892208782  LUMO = -0.0450520316975442
  mo_energy =
[-10.03285837 -10.03032208 -10.03022347 -10.02736978 -10.02709737
 -10.02513725 -10.02207131 -10.02103215 -10.02059532 -10.01904299
 -10.01495816 -10.01444482 -10.01089321 -10.00959138 -10.00950075
 -10.00817829 -10.00714246 -10.00684477 -10.00532398 -10.0023861
 -10.00173223  -9.9975629   -0.84819027  -0.83855416  -0.808962
  -0.78820477  -0.76565523  -0.75359534  -0.73108249  -0.71434639
  -0.71081063  -0.67550585  -0.64792484  -0.63555405  -0.59812268
  -0.57624451  -0.56656609  -0.55974925  -0.55187447  -0.53391341
  -0.49024074  -0.48221123  -0.4765876   -0.46383544  -0.45875647
  -0.43568995  -0.42836445  -0.41850469  -0.39855464  -0.39262739
  -0.38847565  -0.37038527  -0.36864831  -0.36235935  -0.36122116
  -0.35459359  -0.34668073  -0.33474347  -0.31984578  -0.30836256
  -0.29514556  -0.29188042  -0.28559753  -0.27732246  -0.26273447
  -0.25417878  -0.24158679  -0.22091105  -0.20718001  -0.19545164
  -0.18995777  -0.1500886   -0.09134959  -0.04505203   0.01755989
   0.07054674   0.08326869   0.10301487   0.12609836   0.15411024
   0.17461971   0.21477736   0.22159752   0.23735206   0.26950624
   0.2839667    0.29824571   0.30935215   0.33247791   0.34767059
   0.35946509   0.37265912   0.3842398    0.40650642   0.40914914
   0.41563562   0.43890321   0.44480015   0.46353096   0.47455024
   0.49434515   0.49593808   0.5076618    0.51642798   0.53615015
   0.56097453   0.56413237   0.5963342    0.61654888   0.63193817
   0.65123857   0.66025313   0.67519313   0.70374669   0.71854512
   0.72432544   0.74704253   0.79956939   0.82877068   0.85182029
   0.92504088   0.95765854   1.01172238   1.04139088]
nelec by numeric integration = 146.00000060139902
    CPU time for vxc     38.02 sec, wall time     15.89 sec
E1 = -4091.227656659046  Ecoul = 1890.4968821822486  Exc = -124.6632045152317
cycle= 6 E= -835.649443847593  delta_E= -0.00176  |g|= 0.0445  |ddm|= 0.173
    CPU time for cycle= 6     38.54 sec, wall time     15.97 sec
  HOMO = -0.0912703629798911  LUMO = -0.0447698646335202
  mo_energy =
[-10.03098074 -10.02993339 -10.02846226 -10.02743284 -10.02581462
 -10.02552858 -10.02411882 -10.01989618 -10.01661248 -10.01638061
 -10.01502777 -10.012857   -10.0110946  -10.00966117 -10.00780468
 -10.00609392 -10.00497993 -10.00444876 -10.00412314 -10.00402206
 -10.00304449  -9.99689593  -0.84805159  -0.83812191  -0.80818867
  -0.78718507  -0.76548106  -0.75308424  -0.73099675  -0.71409359
  -0.70937581  -0.67416269  -0.64834444  -0.63499282  -0.59771479
  -0.57561244  -0.56598565  -0.55937672  -0.55110475  -0.53354143
  -0.48981991  -0.48171134  -0.47623018  -0.46340239  -0.45823119
  -0.43571492  -0.4278822   -0.41783749  -0.39774492  -0.39221582
  -0.38780967  -0.37013984  -0.36843628  -0.3617596   -0.3608833
  -0.35411156  -0.34632754  -0.33377829  -0.31907695  -0.30745311
  -0.29451143  -0.29097965  -0.28501852  -0.27652969  -0.26250443
  -0.25342211  -0.24161354  -0.22069431  -0.20663233  -0.19468399
  -0.18925012  -0.14877577  -0.09127036  -0.04476986   0.01889342
   0.07163972   0.08371112   0.10312325   0.12713308   0.15442639
   0.17567971   0.21545043   0.22159539   0.23726751   0.27072065
   0.28488944   0.29834793   0.30994236   0.3328806    0.34761956
   0.36054345   0.37326305   0.38418879   0.40706031   0.40968695
   0.41631149   0.43925545   0.44549624   0.46463719   0.47648634
   0.49546386   0.49638214   0.50850997   0.51699581   0.53746103
   0.56130968   0.56432234   0.59647909   0.61736015   0.63290893
   0.6517545    0.66062119   0.67570191   0.70406296   0.71846077
   0.72484485   0.74722792   0.80023516   0.82848191   0.85226029
   0.92668417   0.95833955   1.01042595   1.04202055]
nelec by numeric integration = 146.0000006026756
    CPU time for vxc     38.65 sec, wall time     16.09 sec
E1 = -4091.204870021931  Ecoul = 1890.4721984188245  Exc = -124.6619237600611
cycle= 7 E= -835.650060218733  delta_E= -0.000616  |g|= 0.0246  |ddm|= 0.056
    CPU time for cycle= 7     39.15 sec, wall time     16.17 sec
  HOMO = -0.0915407380714932  LUMO = -0.0448436937825641
  mo_energy =
[-10.03098378 -10.03073623 -10.03056049 -10.02640605 -10.02620259
 -10.02592437 -10.02325347 -10.01857386 -10.01845513 -10.016154
 -10.01423842 -10.01341994 -10.01014058 -10.00950042 -10.00853622
 -10.00639274 -10.00593631 -10.0043442  -10.00408333 -10.00390941
 -10.00370748  -9.99512975  -0.84787394  -0.83820018  -0.80830094
  -0.78787793  -0.76549508  -0.75281758  -0.7310055   -0.71387978
  -0.7095815   -0.67430964  -0.64889769  -0.63453741  -0.59772126
  -0.57565238  -0.56620299  -0.55931593  -0.55132171  -0.53339591
  -0.48987542  -0.48175003  -0.47628449  -0.46361231  -0.45808062
  -0.43556198  -0.42782122  -0.41822951  -0.39800567  -0.39207296
  -0.38790697  -0.36998109  -0.36820862  -0.36194447  -0.3608704
  -0.353854    -0.34629742  -0.33425107  -0.31917772  -0.30755798
  -0.29473041  -0.29117477  -0.28529697  -0.27680924  -0.26250073
  -0.25329067  -0.24144066  -0.22036101  -0.20677089  -0.19479135
  -0.18913064  -0.14896551  -0.09154074  -0.04484369   0.01870108
   0.07170432   0.08362592   0.10370119   0.12702243   0.1543792
   0.17520438   0.21528584   0.22137744   0.23717787   0.27055376
   0.28458824   0.29851365   0.30971445   0.33310705   0.34783612
   0.36035881   0.37301558   0.38467127   0.40696303   0.40901351
   0.41609611   0.43943756   0.44572536   0.4644663    0.47594246
   0.49535608   0.49656874   0.50852328   0.51701564   0.53742085
   0.56135725   0.56460674   0.59717869   0.61744536   0.6325246
   0.65167241   0.66080703   0.67573426   0.70426509   0.7182991
   0.7253182    0.74724439   0.80053569   0.82790566   0.85207259
   0.92628836   0.95745196   1.01109234   1.04139909]
nelec by numeric integration = 146.00000060256698
    CPU time for vxc     38.90 sec, wall time     16.00 sec
E1 = -4091.2757348736154  Ecoul = 1890.542568561536  Exc = -124.66168114083496
cycle= 8 E= -835.650312308479  delta_E= -0.000252  |g|= 0.00771  |ddm|= 0.0407
    CPU time for cycle= 8     39.34 sec, wall time     16.07 sec
  HOMO = -0.0917730065908706  LUMO = -0.0450632481510567
  mo_energy =
[-10.03086627 -10.0303131  -10.03017098 -10.0270318  -10.02688421
 -10.0252897  -10.02353771 -10.01975052 -10.01850691 -10.01702172
 -10.0140349  -10.01337646 -10.00948889 -10.00876325 -10.00855618
 -10.0072001  -10.00616146 -10.00463515 -10.00462332 -10.00439798
 -10.00351508  -9.99579265  -0.84824391  -0.83786965  -0.80849706
  -0.78771152  -0.76581068  -0.75272362  -0.73118898  -0.71391464
  -0.70975781  -0.67441417  -0.64923397  -0.6345036   -0.5979313
  -0.57568237  -0.56635242  -0.55929654  -0.55142541  -0.53334413
  -0.48982381  -0.48180101  -0.47645654  -0.46376479  -0.45807935
  -0.4357729   -0.42778802  -0.41825622  -0.39815461  -0.39215937
  -0.38814071  -0.3702016   -0.36813643  -0.36187471  -0.3611048
  -0.35391921  -0.3461783   -0.33437682  -0.31933426  -0.30762162
  -0.29487527  -0.29125503  -0.28520038  -0.27687496  -0.26279628
  -0.25323107  -0.24181607  -0.22035951  -0.20687915  -0.19496207
  -0.18920911  -0.14901481  -0.09177301  -0.04506325   0.01863051
   0.0714549    0.08341549   0.10368206   0.12712067   0.15400864
   0.17521721   0.21520319   0.22143193   0.23715434   0.27044472
   0.28467005   0.29827768   0.3096606    0.33331348   0.34759472
   0.36033027   0.37269061   0.38474253   0.40683557   0.40884227
   0.41601282   0.43926427   0.44551335   0.46443511   0.47592952
   0.49526424   0.49679666   0.50832757   0.51711262   0.53716892
   0.56106105   0.56468044   0.59710192   0.6174596    0.63247627
   0.6515345    0.66093131   0.67548175   0.70393048   0.71782194
   0.72518376   0.74693132   0.80058662   0.82755446   0.85201778
   0.9261281    0.95777957   1.01068661   1.0419731 ]
nelec by numeric integration = 146.00000060345502
    CPU time for vxc     38.24 sec, wall time     15.86 sec
E1 = -4091.296751945869  Ecoul = 1890.5636928749539  Exc = -124.6618132988456
cycle= 9 E= -835.650337225325  delta_E= -2.49e-05  |g|= 0.00113  |ddm|= 0.0153
    CPU time for cycle= 9     38.83 sec, wall time     15.95 sec
  HOMO = -0.0917436437524237  LUMO = -0.0450438756568015
  mo_energy =
[-10.03073792 -10.03041339 -10.03023038 -10.02691823 -10.0268753
 -10.02524336 -10.02351556 -10.01989566 -10.01872262 -10.01711645
 -10.01440566 -10.0131904  -10.00945142 -10.00883911 -10.00849899
 -10.00717506 -10.00629235 -10.00462544 -10.00452078 -10.00445596
 -10.00365393  -9.99549216  -0.84823578  -0.83792899  -0.80849125
  -0.78770129  -0.76581627  -0.75273732  -0.73120061  -0.71391626
  -0.70978594  -0.67444422  -0.64923997  -0.63445822  -0.59795376
  -0.57570226  -0.56636489  -0.5593037   -0.5514531   -0.53333822
  -0.4898105   -0.48182041  -0.47647082  -0.46375153  -0.4580346
  -0.43580747  -0.42779412  -0.41827028  -0.39815115  -0.39216492
  -0.38815072  -0.37024441  -0.36812179  -0.36188698  -0.36111747
  -0.35390931  -0.34620738  -0.33439357  -0.31934028  -0.3076156
  -0.29489167  -0.29130206  -0.28520743  -0.27686712  -0.26282091
  -0.25324503  -0.24182438  -0.22036051  -0.20691045  -0.194993
  -0.18924777  -0.14903949  -0.09174364  -0.04504388   0.01861028
   0.07141567   0.08338934   0.10370199   0.12708043   0.15400458
   0.17523126   0.21519341   0.2213921    0.23711611   0.27045058
   0.28465571   0.29826038   0.30963787   0.33330319   0.34755939
   0.36031966   0.37268925   0.38477771   0.40679628   0.40882998
   0.41600058   0.43927356   0.44548221   0.46443282   0.47587924
   0.49523923   0.49683335   0.50829419   0.51712568   0.53714013
   0.56104669   0.56474486   0.59718149   0.61746278   0.6324386
   0.65150275   0.66089266   0.67546478   0.7039458    0.71784836
   0.72520288   0.74691318   0.80054758   0.827556     0.85197147
   0.92620657   0.95775415   1.01067478   1.04191346]
nelec by numeric integration = 146.00000060327878
    CPU time for vxc     38.44 sec, wall time     15.97 sec
E1 = -4091.30228801832  Ecoul = 1890.569223256907  Exc = -124.66180770736995
cycle= 10 E= -835.650337324347  delta_E= -9.9e-08  |g|= 0.000934  |ddm|= 0.00286
    CPU time for cycle= 10     38.95 sec, wall time     16.05 sec
  HOMO = -0.0917127493347237  LUMO = -0.0450298222311216
  mo_energy =
[-10.03072494 -10.03030802 -10.03020461 -10.02687231 -10.02684119
 -10.02518373 -10.02347835 -10.01976313 -10.01860989 -10.01700147
 -10.01423982 -10.01320192 -10.00946025 -10.00878728 -10.00852943
 -10.00712454 -10.00623329 -10.00452004 -10.00450494 -10.00439779
 -10.00360909  -9.99558521  -0.84818796  -0.83788023  -0.80845318
  -0.78767034  -0.76577105  -0.75270897  -0.73116929  -0.71389
  -0.70973996  -0.67440487  -0.64920152  -0.63446331  -0.59791464
  -0.57566898  -0.56632962  -0.55927621  -0.55141499  -0.53332235
  -0.48979425  -0.48178674  -0.47643611  -0.46372835  -0.45803499
  -0.43577172  -0.42777192  -0.4182394   -0.39812424  -0.39213382
  -0.38811305  -0.37020452  -0.36810789  -0.3618579   -0.36107697
  -0.35389194  -0.34617162  -0.33435578  -0.31930866  -0.30758905
  -0.29486208  -0.29125852  -0.28518085  -0.27684011  -0.26277445
  -0.2532145   -0.24178668  -0.22034137  -0.20687112  -0.19494743
  -0.18920769  -0.14900366  -0.09171275  -0.04502982   0.01864597
   0.07146731   0.08343067   0.10371091   0.12712136   0.15405298
   0.17525975   0.21522938   0.22142463   0.23714435   0.27048071
   0.28469339   0.29830413   0.30968048   0.33332184   0.3475845
   0.36034877   0.37273254   0.38477243   0.40684005   0.40886812
   0.41603374   0.43929822   0.4455257    0.46445917   0.47592426
   0.4952752    0.49683395   0.50834062   0.51713704   0.53718544
   0.56109018   0.56472775   0.59716426   0.61748314   0.63248574
   0.65154116   0.66093097   0.67550877   0.70398145   0.71789243
   0.72522051   0.74696156   0.80058772   0.82759096   0.85201082
   0.92622838   0.95779822   1.01072575   1.04196766]
nelec by numeric integration = 146.00000060334682
    CPU time for vxc     38.14 sec, wall time     15.94 sec
E1 = -4091.2959404507387  Ecoul = 1890.56280765947  Exc = -124.66174001085419
cycle= 11 E= -835.650337657687  delta_E= -3.33e-07  |g|= 0.000122  |ddm|= 0.00171
    CPU time for cycle= 11     38.44 sec, wall time     15.99 sec
  HOMO = -0.0917061099652345  LUMO = -0.0450221188184835
  mo_energy =
[-10.03072451 -10.03030392 -10.030219   -10.02688321 -10.02684884
 -10.02521319 -10.02348508 -10.0197711  -10.01860762 -10.0170152
 -10.01423098 -10.01320074 -10.009454   -10.0087877  -10.00852246
 -10.00709576 -10.00620146 -10.00452279 -10.00450803 -10.00436034
 -10.00356745  -9.99556241  -0.84818951  -0.83788128  -0.80845123
  -0.78767102  -0.76576824  -0.75270631  -0.73116219  -0.71388708
  -0.70973502  -0.67439958  -0.64919671  -0.63445947  -0.59791136
  -0.57566511  -0.56632751  -0.5592757   -0.55141166  -0.53332082
  -0.48979305  -0.48178553  -0.47643464  -0.4637268   -0.45803366
  -0.43577052  -0.4277708   -0.41823623  -0.39811906  -0.39213212
  -0.38811077  -0.37020113  -0.36810688  -0.36185717  -0.36107612
  -0.35389013  -0.34617158  -0.33435254  -0.31930537  -0.30758788
  -0.29486021  -0.29125187  -0.28517938  -0.27683798  -0.26277237
  -0.25321211  -0.2417872   -0.22033678  -0.20686455  -0.19494493
  -0.18920352  -0.1489988   -0.09170611  -0.04502212   0.01865081
   0.07147036   0.08343779   0.10371466   0.12712492   0.15405506
   0.17525988   0.21523019   0.2214238    0.23714296   0.27048412
   0.28469402   0.29830387   0.30968114   0.33332366   0.34757846
   0.36035176   0.37273645   0.38477159   0.40684501   0.40887233
   0.41603722   0.43930315   0.44553393   0.46446357   0.47593261
   0.49528193   0.49682807   0.50834457   0.51713941   0.53719401
   0.56109144   0.56472999   0.59716855   0.61748671   0.63248913
   0.65154882   0.66093236   0.67551154   0.70398236   0.71789185
   0.72522559   0.74696496   0.8005929    0.82759615   0.85202122
   0.92622885   0.95779585   1.01072116   1.04196173]
nelec by numeric integration = 146.00000060336
    CPU time for vxc     38.70 sec, wall time     16.04 sec
E1 = -4091.296241041035  Ecoul = 1890.563101719293  Exc = -124.66173348398627
cycle= 12 E= -835.650337661293  delta_E= -3.61e-09  |g|= 7.07e-05  |ddm|= 0.000276
    CPU time for cycle= 12     39.12 sec, wall time     16.11 sec
  HOMO = -0.0917093577802238  LUMO = -0.0450264916795184
  mo_energy =
[-10.0307261  -10.03030605 -10.03021522 -10.02687917 -10.02684426
 -10.02521397 -10.02348026 -10.01977171 -10.01860135 -10.0170125
 -10.01423914 -10.0132029  -10.00945876 -10.00878954 -10.0085273
 -10.00710844 -10.00621644 -10.00452507 -10.00451117 -10.00437433
 -10.00358736  -9.99557625  -0.84818968  -0.8378831   -0.80845251
  -0.78767184  -0.76577094  -0.75270977  -0.73116613  -0.71388991
  -0.70973741  -0.6744019   -0.64919942  -0.63446259  -0.59791313
  -0.57566791  -0.56632866  -0.55927772  -0.5514127   -0.53332282
  -0.48979491  -0.48178697  -0.47643588  -0.46372856  -0.45803612
  -0.43577079  -0.42777242  -0.41823813  -0.39812178  -0.39213382
  -0.38811245  -0.37020242  -0.36810959  -0.36185843  -0.36107702
  -0.3538924   -0.34617343  -0.3343543   -0.31930712  -0.30758895
  -0.29486075  -0.2912553   -0.28518138  -0.27683972  -0.26277443
  -0.25321495  -0.24178719  -0.22034051  -0.20686767  -0.19494709
  -0.1892063   -0.14900114  -0.09170936  -0.04502649   0.01864832
   0.07146793   0.08343405   0.10371052   0.1271224    0.15405239
   0.1752591    0.21522912   0.22142502   0.23714517   0.27048222
   0.28469233   0.29830346   0.30968021   0.33332114   0.34758255
   0.36035082   0.37273405   0.38476991   0.40684271   0.40887045
   0.4160352    0.43929973   0.44552911   0.46446103   0.47593045
   0.49527864   0.49682741   0.5083422    0.51713726   0.53718978
   0.56109027   0.56472766   0.59716427   0.61748396   0.63248723
   0.65154471   0.66092953   0.67550942   0.7039807    0.71789042
   0.72522171   0.7469625    0.80058873   0.82759325   0.8520156
   0.92622746   0.957795     1.01072396   1.04196095]
nelec by numeric integration = 146.0000006033574
    CPU time for vxc     38.03 sec, wall time     15.88 sec
E1 = -4091.296243355743  Ecoul = 1890.5631105778996  Exc = -124.66174002951028
cycle= 13 E= -835.650337662918  delta_E= -1.63e-09  |g|= 1.97e-05  |ddm|= 0.000108
    CPU time for cycle= 13     38.34 sec, wall time     15.93 sec
  HOMO = -0.091710138615066  LUMO = -0.0450272150762804
  mo_energy =
[-10.03072645 -10.0303078  -10.0302163  -10.0268797  -10.02684618
 -10.02521217 -10.02348326 -10.01977031 -10.01860675 -10.01701236
 -10.01423929 -10.01320287 -10.00946064 -10.00879082 -10.0085293
 -10.00710901 -10.00621563 -10.00452459 -10.00451476 -10.00437528
 -10.00358475  -9.99557672  -0.84819015  -0.83788394  -0.80845312
  -0.78767268  -0.76577081  -0.75271055  -0.73116629  -0.71389072
  -0.70973773  -0.67440246  -0.64919969  -0.63446351  -0.59791337
  -0.57566818  -0.56632898  -0.55927805  -0.55141322  -0.53332361
  -0.48979536  -0.48178727  -0.47643589  -0.46372891  -0.45803654
  -0.43577081  -0.42777302  -0.41823858  -0.39812235  -0.39213464
  -0.38811265  -0.37020235  -0.36811025  -0.36185917  -0.36107753
  -0.35389314  -0.34617417  -0.33435485  -0.31930779  -0.30758989
  -0.29486099  -0.29125533  -0.2851822   -0.27684026  -0.2627744
  -0.25321583  -0.24178732  -0.22034123  -0.20686818  -0.19494735
  -0.18920688  -0.14900214  -0.09171014  -0.04502722   0.01864746
   0.07146785   0.08343387   0.10370983   0.12712115   0.15405252
   0.17525846   0.21522845   0.22142431   0.23714449   0.27048138
   0.28469175   0.29830284   0.3096795    0.33332038   0.34758255
   0.36034924   0.37273382   0.38476929   0.40684259   0.40886968
   0.41603464   0.43929918   0.44552928   0.46446014   0.47592935
   0.4952788    0.49682728   0.50834225   0.5171364    0.53718995
   0.56109013   0.56472663   0.59716352   0.61748321   0.63248657
   0.65154506   0.660929     0.67550924   0.70398036   0.71789041
   0.72522072   0.74696235   0.8005875    0.82759312   0.85201613
   0.92622727   0.95779428   1.01072247   1.04196038]
nelec by numeric integration = 146.00000060335617
    CPU time for vxc     38.15 sec, wall time     15.83 sec
E1 = -4091.2962907582655  Ecoul = 1890.5631590171297  Exc = -124.66174106635366
cycle= 14 E= -835.650337663054  delta_E= -1.36e-10  |g|= 6.68e-06  |ddm|= 3.33e-05
    CPU time for cycle= 14     38.50 sec, wall time     15.89 sec
  HOMO = -0.0917098468592854  LUMO = -0.0450268403990347
  mo_energy =
[-10.03072676 -10.03030762 -10.03021543 -10.02687996 -10.02684654
 -10.02521142 -10.02348302 -10.01977109 -10.01860519 -10.01701225
 -10.01423859 -10.01320385 -10.00945969 -10.00879047 -10.00852831
 -10.00710821 -10.00621516 -10.00452414 -10.00451404 -10.00437607
 -10.00358482  -9.9955763   -0.84819031  -0.83788349  -0.80845313
  -0.78767233  -0.7657708   -0.75271014  -0.73116611  -0.71389035
  -0.7097378   -0.67440234  -0.64919942  -0.63446313  -0.59791332
  -0.57566803  -0.56632895  -0.55927785  -0.55141321  -0.53332324
  -0.48979518  -0.48178715  -0.47643592  -0.46372875  -0.4580363
  -0.43577086  -0.42777281  -0.41823838  -0.39812227  -0.39213453
  -0.38811267  -0.3702025   -0.36810985  -0.36185886  -0.36107755
  -0.35389284  -0.34617385  -0.33435467  -0.31930764  -0.30758964
  -0.29486098  -0.2912553   -0.28518179  -0.27684013  -0.26277437
  -0.25321545  -0.24178749  -0.22034081  -0.20686801  -0.19494729
  -0.18920665  -0.1490019   -0.09170985  -0.04502684   0.01864766
   0.0714678    0.08343396   0.10371027   0.12712159   0.15405255
   0.17525859   0.21522861   0.22142445   0.23714452   0.27048156
   0.28469196   0.29830287   0.30967966   0.33332086   0.34758244
   0.36034975   0.37273386   0.38476974   0.40684262   0.40887001
   0.41603476   0.43929945   0.44552925   0.46446049   0.47592942
   0.49527866   0.49682768   0.50834218   0.51713676   0.53718969
   0.56109009   0.56472709   0.59716392   0.61748346   0.63248675
   0.65154501   0.66092935   0.67550923   0.70398035   0.71789045
   0.72522113   0.74696233   0.80058804   0.82759336   0.85201627
   0.92622689   0.9577947    1.01072238   1.04196085]
nelec by numeric integration = 146.0000006033564
    CPU time for vxc     38.14 sec, wall time     15.92 sec
E1 = -4091.2962852540477  Ecoul = 1890.5631530414703  Exc = -124.6617405949259
cycle= 15 E= -835.650337663068  delta_E= -1.41e-11  |g|= 4.73e-06  |ddm|= 1.33e-05
    CPU time for cycle= 15     38.55 sec, wall time     15.99 sec
  HOMO = -0.0917095805676893  LUMO = -0.0450266084912023
  mo_energy =
[-10.03072548 -10.03030789 -10.03021462 -10.02687846 -10.02684509
 -10.02521245 -10.02348228 -10.01976978 -10.01860545 -10.01701194
 -10.01423978 -10.01320208 -10.00946228 -10.00878879 -10.00853101
 -10.00710577 -10.00621555 -10.00452321 -10.0045151  -10.00437452
 -10.00358485  -9.99557866  -0.84818932  -0.83788388  -0.80845244
  -0.78767194  -0.76577007  -0.75271092  -0.73116587  -0.71389081
  -0.70973713  -0.67440212  -0.64919839  -0.63446413  -0.59791284
  -0.57566792  -0.5663283   -0.55927798  -0.55141259  -0.53332377
  -0.48979521  -0.48178696  -0.47643534  -0.46372836  -0.45803683
  -0.43577038  -0.42777301  -0.41823795  -0.39812179  -0.39213448
  -0.38811207  -0.37020195  -0.36811047  -0.36185886  -0.36107692
  -0.35389337  -0.34617411  -0.3343541   -0.31930739  -0.30758961
  -0.29486043  -0.29125486  -0.28518193  -0.27683976  -0.26277377
  -0.253216    -0.2417867   -0.22034157  -0.20686771  -0.19494683
  -0.18920678  -0.14900189  -0.09170958  -0.04502661   0.01864777
   0.07146824   0.08343443   0.10370913   0.12712118   0.1540533
   0.17525913   0.21522894   0.22142488   0.237145     0.27048173
   0.28469219   0.29830339   0.3096801    0.33332003   0.34758283
   0.36034942   0.37273472   0.38476858   0.40684315   0.40887073
   0.41603516   0.43929928   0.4455295    0.4644603    0.47593001
   0.49527923   0.49682679   0.50834273   0.5171363    0.53719049
   0.56109077   0.5647261    0.59716264   0.61748314   0.63248725
   0.65154556   0.66092882   0.67550981   0.70398082   0.71789157
   0.72522029   0.74696311   0.80058709   0.82759442   0.85201656
   0.92622812   0.95779519   1.0107233    1.04196079]
nelec by numeric integration = 146.00000060335782
    CPU time for vxc     38.23 sec, wall time     15.89 sec
E1 = -4091.2961552978713  Ecoul = 1890.563022950224  Exc = -124.66174045955779
Extra cycle  E= -835.65033766277  delta_E= 2.98e-10  |g|= 2.52e-05  |ddm|= 6.42e-05
    CPU time for scf_cycle    671.02 sec, wall time    276.44 sec
    CPU time for SCF    671.02 sec, wall time    276.44 sec
converged SCF energy = -835.65033766277
nelec by numeric integration = 146.00000060335782
    CPU time for vxc     38.01 sec, wall time     15.90 sec
 ** Mulliken pop  **
pop of  0 C 1s            1.99111
pop of  0 C 2s            1.07977
pop of  0 C 2px           0.99554
pop of  0 C 2py           0.97748
pop of  0 C 2pz           0.96535
pop of  1 C 1s            1.99100
pop of  1 C 2s            1.14986
pop of  1 C 2px           0.96182
pop of  1 C 2py           0.95869
pop of  1 C 2pz           0.93450
pop of  2 C 1s            1.99103
pop of  2 C 2s            1.09065
pop of  2 C 2px           1.01260
pop of  2 C 2py           0.98615
pop of  2 C 2pz           1.02939
pop of  3 C 1s            1.99150
pop of  3 C 2s            1.13178
pop of  3 C 2px           0.98885
pop of  3 C 2py           0.95679
pop of  3 C 2pz           0.99069
pop of  4 C 1s            1.99129
pop of  4 C 2s            1.20131
pop of  4 C 2px           0.97222
pop of  4 C 2py           0.94387
pop of  4 C 2pz           0.98500
pop of  5 C 1s            1.99106
pop of  5 C 2s            1.15901
pop of  5 C 2px           1.01169
pop of  5 C 2py           0.94041
pop of  5 C 2pz           0.99263
pop of  6 C 1s            1.99105
pop of  6 C 2s            1.18379
pop of  6 C 2px           0.95291
pop of  6 C 2py           0.98495
pop of  6 C 2pz           0.95420
pop of  7 C 1s            1.99108
pop of  7 C 2s            1.19469
pop of  7 C 2px           0.98722
pop of  7 C 2py           0.96409
pop of  7 C 2pz           0.93348
pop of  8 C 1s            1.99089
pop of  8 C 2s            1.09661
pop of  8 C 2px           0.99946
pop of  8 C 2py           0.98329
pop of  8 C 2pz           0.96557
pop of  9 C 1s            1.99127
pop of  9 C 2s            1.21176
pop of  9 C 2px           0.94819
pop of  9 C 2py           0.91703
pop of  9 C 2pz           0.90743
pop of  10 C 1s           1.99149
pop of  10 C 2s           1.17476
pop of  10 C 2px          1.00132
pop of  10 C 2py          0.91963
pop of  10 C 2pz          1.02606
pop of  11 C 1s           1.99088
pop of  11 C 2s           1.17902
pop of  11 C 2px          1.00819
pop of  11 C 2py          0.92317
pop of  11 C 2pz          0.98698
pop of  12 C 1s           1.99101
pop of  12 C 2s           1.15434
pop of  12 C 2px          0.95383
pop of  12 C 2py          0.94959
pop of  12 C 2pz          0.93385
pop of  13 C 1s           1.99086
pop of  13 C 2s           1.11779
pop of  13 C 2px          0.99504
pop of  13 C 2py          0.98471
pop of  13 C 2pz          0.92901
pop of  14 C 1s           1.99072
pop of  14 C 2s           1.11058
pop of  14 C 2px          1.02056
pop of  14 C 2py          0.95788
pop of  14 C 2pz          1.03278
pop of  15 C 1s           1.99086
pop of  15 C 2s           1.10608
pop of  15 C 2px          0.99589
pop of  15 C 2py          0.98176
pop of  15 C 2pz          1.01635
pop of  16 C 1s           1.99073
pop of  16 C 2s           1.07617
pop of  16 C 2px          0.99704
pop of  16 C 2py          0.99256
pop of  16 C 2pz          0.97222
pop of  17 C 1s           1.99088
pop of  17 C 2s           1.16579
pop of  17 C 2px          0.97504
pop of  17 C 2py          0.92872
pop of  17 C 2pz          0.91528
pop of  18 C 1s           1.99126
pop of  18 C 2s           1.09702
pop of  18 C 2px          1.01121
pop of  18 C 2py          0.97197
pop of  18 C 2pz          0.98590
pop of  19 C 1s           1.99094
pop of  19 C 2s           1.16455
pop of  19 C 2px          0.99364
pop of  19 C 2py          0.94667
pop of  19 C 2pz          1.00592
pop of  20 C 1s           1.99095
pop of  20 C 2s           1.17841
pop of  20 C 2px          0.97890
pop of  20 C 2py          0.95449
pop of  20 C 2pz          0.94030
pop of  21 C 1s           1.99104
pop of  21 C 2s           1.12690
pop of  21 C 2px          1.01143
pop of  21 C 2py          1.01041
pop of  21 C 2pz          1.00316
pop of  22 H 1s           0.89800
pop of  23 H 1s           0.92588
pop of  24 H 1s           0.90537
pop of  25 H 1s           0.90884
pop of  26 H 1s           0.94084
pop of  27 H 1s           0.90503
pop of  28 H 1s           0.88581
pop of  29 H 1s           0.91176
pop of  30 H 1s           0.89171
pop of  31 H 1s           0.91590
pop of  32 H 1s           0.94152
pop of  33 H 1s           0.90122
pop of  34 H 1s           0.92160
pop of  35 H 1s           0.87999
 ** Mulliken atomic charges  **
charge of    0C =     -0.00925
charge of    1C =      0.00414
charge of    2C =     -0.10982
charge of    3C =     -0.05962
charge of    4C =     -0.09370
charge of    5C =     -0.09481
charge of    6C =     -0.06690
charge of    7C =     -0.07055
charge of    8C =     -0.03582
charge of    9C =      0.02431
charge of   10C =     -0.11327
charge of   11C =     -0.08823
charge of   12C =      0.01738
charge of   13C =     -0.01742
charge of   14C =     -0.11252
charge of   15C =     -0.09094
charge of   16C =     -0.02873
charge of   17C =      0.02430
charge of   18C =     -0.05736
charge of   19C =     -0.10173
charge of   20C =     -0.04305
charge of   21C =     -0.14293
charge of   22H =      0.10200
charge of   23H =      0.07412
charge of   24H =      0.09463
charge of   25H =      0.09116
charge of   26H =      0.05916
charge of   27H =      0.09497
charge of   28H =      0.11419
charge of   29H =      0.08824
charge of   30H =      0.10829
charge of   31H =      0.08410
charge of   32H =      0.05848
charge of   33H =      0.09878
charge of   34H =      0.07840
charge of   35H =      0.12001
Dipole moment(X, Y, Z, Debye): -0.06900,  0.08173,  0.00596
nelec by numeric integration = 146.00000060335782
    CPU time for vxc     37.85 sec, wall time     15.92 sec
E1 = -4091.2961552978713  Ecoul = 1890.5630229502235  Exc = -124.66174045955779
nelec by numeric integration = 146.00000060335782
    CPU time for vxc     38.18 sec, wall time     15.91 sec
E1 = -4091.2961552978713  Ecoul = 1890.5630229502246  Exc = -124.66174045955779
