System: uname_result(system='Linux', node='cosmopc18', release='5.15.0-97-generic', version='#107-Ubuntu SMP Wed Feb 7 13:26:48 UTC 2024', machine='x86_64')  Threads 4
Python 3.11.8 (main, Feb 26 2024, 21:39:34) [GCC 11.2.0]
numpy 1.26.4  scipy 1.11.4
Date: Tue Apr  9 15:38:14 2024
PySCF version 2.3.0
PySCF path  /home/saade/miniconda3/envs/tutorial/lib/python3.11/site-packages/pyscf

[ENV] PYSCFAD_BACKEND torch
[CONFIG] conf_file None
[INPUT] verbose = 5
[INPUT] max_memory = 4000 
[INPUT] num. atoms = 36
[INPUT] num. electrons = 146
[INPUT] charge = 0
[INPUT] spin (= nelec alpha-beta = 2S) = 0
[INPUT] symmetry False subgroup None
[INPUT] Mole.unit = angstrom
[INPUT] Symbol           X                Y                Z      unit          X                Y                Z       unit  Magmom
[INPUT]  1 C      0.039347000000   3.664764000000   0.704771000000 AA    0.074355053823   6.925400271166   1.331824170536 Bohr   0.0
[INPUT]  2 C     -0.007869000000   3.661073000000  -0.597169000000 AA   -0.014870254874   6.918425292040  -1.128485860080 Bohr   0.0
[INPUT]  3 C      0.145620000000   4.942836000000   1.485124000000 AA    0.275181918259   9.340606318641   2.806477621019 Bohr   0.0
[INPUT]  4 C     -0.133144000000   2.474839000000   1.381478000000 AA   -0.251605695129   4.676767912392   2.610615067112 Bohr   0.0
[INPUT]  5 C     -0.089130000000   4.923740000000  -1.600568000000 AA   -0.168431289482   9.304520108566  -3.024635163743 Bohr   0.0
[INPUT]  6 C      0.041349000000   2.463074000000  -1.229510000000 AA    0.078138285525   4.654535284537  -2.323437167414 Bohr   0.0
[INPUT]  7 C     -0.025277000000   5.995953000000  -0.757113000000 AA   -0.047766607251  11.330709025764  -1.430736215348 Bohr   0.0
[INPUT]  8 C      0.033757000000   6.045679000000   0.565502000000 AA    0.063791484787  11.424677547034   1.068643902894 Bohr   0.0
[INPUT]  9 C      0.178634000000   1.294870000000   0.850778000000 AA    0.337569336536   2.446949666916   1.607737412805 Bohr   0.0
[INPUT] 10 C     -0.092523000000   1.104047000000  -0.655410000000 AA   -0.174843130223   2.086346458648  -1.238545399301 Bohr   0.0
[INPUT] 11 C      0.199789000000  -0.022239000000   1.408134000000 AA    0.377546492701  -0.042025619284   2.660987606688 Bohr   0.0
[INPUT] 12 C     -0.051051000000  -0.023455000000  -1.445222000000 AA   -0.096472408385  -0.044323526252  -2.731073769196 Bohr   0.0
[INPUT] 13 C     -0.131877000000  -1.150018000000   0.687581000000 AA   -0.249211412129  -2.173219058320   1.299339778455 Bohr   0.0
[INPUT] 14 C      0.030212000000  -1.291100000000  -0.752127000000 AA    0.057092405675  -2.439825399426  -1.421314040891 Bohr   0.0
[INPUT] 15 C     -0.082852000000  -2.460440000000   1.296135000000 AA   -0.156567588872  -4.649557745925   2.449340170463 Bohr   0.0
[INPUT] 16 C     -0.057741000000  -2.387565000000  -1.546127000000 AA   -0.109114676159  -4.511843954597  -2.921756583795 Bohr   0.0
[INPUT] 17 C     -0.107507000000  -3.780021000000   0.806726000000 AA   -0.203158786474  -7.143204435105   1.524491197566 Bohr   0.0
[INPUT] 18 C     -0.048670000000  -3.527566000000  -0.685613000000 AA   -0.091972970483  -6.666133626327  -1.295620797441 Bohr   0.0
[INPUT] 19 C     -0.118118000000  -5.020226000000   1.376295000000 AA   -0.223210670381  -9.486852223421   2.600820616608 Bohr   0.0
[INPUT] 20 C     -0.009245000000  -4.752645000000  -1.356751000000 AA   -0.017470518022  -8.981197417284  -2.563887809230 Bohr   0.0
[INPUT] 21 C     -0.018042000000  -6.081902000000   0.855018000000 AA   -0.034094438739 -11.493129096445   1.615749851573 Bohr   0.0
[INPUT] 22 C     -0.085434000000  -6.019294000000  -0.624219000000 AA   -0.161446861726 -11.374817123238  -1.179602951750 Bohr   0.0
[INPUT] 23 H      0.022874000000   4.869322000000   2.447543000000 AA    0.043225595373   9.201684992319   4.625185948096 Bohr   0.0
[INPUT] 24 H     -0.102921000000   2.517329000000   2.582163000000 AA   -0.194492502466   4.757062375425   4.879580878985 Bohr   0.0
[INPUT] 25 H     -0.269848000000   4.904603000000  -2.534671000000 AA   -0.509938815262   9.268356419720  -4.789834005877 Bohr   0.0
[INPUT] 26 H      0.048070000000   2.553350000000  -2.622674000000 AA    0.090839134808   4.825132200158  -4.956135574018 Bohr   0.0
[INPUT] 27 H      0.138857000000   7.101322000000  -1.237194000000 AA    0.262401700479  13.419553702349  -2.337957822955 Bohr   0.0
[INPUT] 28 H     -0.084488000000   6.830092000000   1.206432000000 AA   -0.159659180812  12.907003285583   2.279826067911 Bohr   0.0
[INPUT] 29 H     -0.082724000000  -0.019583000000   2.494774000000 AA   -0.156325703929  -0.037006506697   4.714439602686 Bohr   0.0
[INPUT] 30 H      0.023479000000   0.043834000000  -2.440935000000 AA    0.044368879679   0.082834254944  -4.612698637865 Bohr   0.0
[INPUT] 31 H     -0.027147000000  -2.421490000000   2.483835000000 AA   -0.051300395104  -4.575952913373   4.693767888609 Bohr   0.0
[INPUT] 32 H     -0.130402000000  -2.569062000000  -2.513968000000 AA   -0.246424066096  -4.854823577027  -4.750711005921 Bohr   0.0
[INPUT] 33 H     -0.055017000000  -4.750755000000   2.499407000000 AA   -0.103967062195  -8.977625834908   4.723194703821 Bohr   0.0
[INPUT] 34 H      0.028149000000  -4.955397000000  -2.366770000000 AA    0.053193900680  -9.364343168491  -4.472547099837 Bohr   0.0
[INPUT] 35 H     -0.156922000000  -6.853933000000   0.955112000000 AA   -0.296539602919 -12.952056246119   1.804900098286 Bohr   0.0
[INPUT] 36 H     -0.089772000000  -7.226449000000  -1.220662000000 AA   -0.169644493654 -13.656009463137  -2.306716870664 Bohr   0.0
[INPUT] ---------------- BASIS SET ---------------- 
[INPUT] l, kappa, [nprim/nctr], expnt,             c_1 c_2 ...
[INPUT] H
[INPUT] 0    0    [3    /1   ]  3.42525091        0.15432897
                                0.62391373        0.53532814
                                0.1688554         0.44463454
[INPUT] C
[INPUT] 0    0    [3    /1   ]  71.616837         0.15432897
                                13.045096         0.53532814
                                3.5305122         0.44463454
[INPUT] 0    0    [3    /1   ]  2.9412494         -0.09996723
                                0.6834831         0.39951283
                                0.2222899         0.70011547
[INPUT] 1    0    [3    /1   ]  2.9412494         0.15591627
                                0.6834831         0.60768372
                                0.2222899         0.39195739

nuclear repulsion = 1501.71619221459
number of shells = 80
number of NR pGTOs = 372
number of NR cGTOs = 124
basis = sto3g
ecp = {}
CPU time:     52124.79
atom C rad-grids = 99, ang-grids = [ 50  50  50  50  50  50  50  50  50  50  50  50  50  50  50  50  50  50
  50  50  50  50  50  50  50  50  50  50  50  50  50  86  86  86  86  86
  86  86  86  86  86  86  86 434 434 434 434 434 434 434 434 434 590 590
 590 590 590 590 590 590 590 590 590 590 590 590 590 590 590 590 590 590
 590 590 590 590 590 590 590 434 434 434 434 434 434 434 434 434 434 434
 434 434 434 434 434 434 434 434 434]
atom H rad-grids = 99, ang-grids = [ 50  50  50  50  50  50  50  50  50  50  50  50  50  50  50  50  50  50
  50  50  50  50  50  50  50  50  50  50  86  86  86  86  86  86  86 434
 434 434 434 434 434 434 434 590 590 590 590 590 590 590 590 590 590 590
 590 590 590 590 590 590 590 590 590 590 590 590 590 590 590 434 434 434
 434 434 434 434 434 434 434 434 434 434 434 434 434 434 434 434 434 434
 434 434 434 434 434 434 434 434 434]
tot_boxes 5440, boxes in each direction [ 8 30 15]
Padding 0 grids
tot grids = 1157832


******** <class 'pyscf.dft.rks.RKS'> ********
method = RKS
initial guess = minao
damping factor = 0
level_shift factor = 0
DIIS = <class 'pyscf.scf.diis.CDIIS'>
diis_start_cycle = 1
diis_space = 8
SCF conv_tol = 1e-10
SCF conv_tol_grad = None
SCF max_cycles = 50
direct_scf = True
direct_scf_tol = 1e-13
chkfile to save SCF result = /home/saade/mlelec/tutorials/tmpghnetbyq
max_memory 4000 MB (current use 690 MB)
XC library pyscf.dft.libxc version 6.1.0
    S. Lehtola, C. Steigemann, M. J.T. Oliveira, and M. A.L. Marques.,  SoftwareX 7, 1–5 (2018)
XC functionals = b3lypg
    P. J. Stephens, F. J. Devlin, C. F. Chabalowski, and M. J. Frisch.,  J. Phys. Chem. 98, 11623 (1994)
radial grids: 
    Treutler-Ahlrichs [JCP 102, 346 (1995); DOI:10.1063/1.469408] (M4) radial grids
    
becke partition: Becke, JCP 88, 2547 (1988); DOI:10.1063/1.454033
pruning grids: <function nwchem_prune at 0x7f9db5616ca0>
grids dens level: 3
symmetrized grids: False
atomic radii adjust function: <function treutler_atomic_radii_adjust at 0x7f9db5617380>
User specified grid scheme (99, 590)
small_rho_cutoff = 1e-07
Set gradient conv threshold to 1e-05
Initial guess from minao.
nelec by numeric integration = 145.27148938582053
    CPU time for vxc     37.69 sec, wall time     15.92 sec
E1 = -4103.729989317022  Ecoul = 1886.6890466195139  Exc = -126.07977309919877
init E= -841.404523582114
cond(S) = 21.828199419206307
    CPU time for initialize scf     47.65 sec, wall time     18.31 sec
  HOMO = -0.202657432370376  LUMO = -0.150626863558327
  mo_energy =
[-1.01631556e+01 -1.01286024e+01 -1.01121406e+01 -1.01120132e+01
 -1.01090761e+01 -1.01088727e+01 -1.01073087e+01 -1.01053677e+01
 -1.01048953e+01 -1.01047041e+01 -1.01009176e+01 -1.00986403e+01
 -1.00975463e+01 -1.00948302e+01 -1.00938072e+01 -1.00934015e+01
 -1.00921134e+01 -1.00909552e+01 -1.00897757e+01 -1.00881573e+01
 -1.00848465e+01 -1.00588905e+01 -1.08919672e+00 -1.07443954e+00
 -1.04082197e+00 -9.91065349e-01 -9.48096886e-01 -9.37709135e-01
 -9.06238053e-01 -8.91084053e-01 -8.68912603e-01 -8.45284388e-01
 -7.92669102e-01 -7.75868323e-01 -7.33627429e-01 -7.04961773e-01
 -6.99852799e-01 -6.84530045e-01 -6.59512839e-01 -6.37555627e-01
 -6.11673787e-01 -5.96746101e-01 -5.67679247e-01 -5.64226274e-01
 -5.51551204e-01 -5.28653040e-01 -5.16160536e-01 -5.06393905e-01
 -4.97399890e-01 -4.77763203e-01 -4.71187250e-01 -4.67134465e-01
 -4.61206143e-01 -4.53170682e-01 -4.44297008e-01 -4.33429334e-01
 -4.21161434e-01 -4.16706055e-01 -4.11759356e-01 -3.91998224e-01
 -3.75842063e-01 -3.67951307e-01 -3.58088185e-01 -3.54521854e-01
 -3.43464064e-01 -3.25063618e-01 -3.19879949e-01 -3.17019501e-01
 -2.94917868e-01 -2.86337061e-01 -2.74996823e-01 -2.50778439e-01
 -2.02657432e-01 -1.50626864e-01 -9.71683718e-02 -7.05425719e-02
 -6.13226717e-02 -1.71103984e-02 -8.80714763e-03  1.51259691e-02
  4.27024888e-02  8.55113528e-02  8.70554760e-02  1.20155081e-01
  1.41581170e-01  1.46105376e-01  1.60483806e-01  1.68390211e-01
  1.81401967e-01  1.96265492e-01  2.09495709e-01  2.27759486e-01
  2.40124126e-01  2.54161533e-01  2.74202971e-01  2.93338038e-01
  3.12224916e-01  3.24326075e-01  3.37839132e-01  3.39719045e-01
  3.42827141e-01  3.57023062e-01  3.67616787e-01  3.82389562e-01
  3.95476596e-01  4.43793934e-01  4.60186940e-01  4.70637345e-01
  4.85317555e-01  4.94638571e-01  5.24840871e-01  5.33481749e-01
  5.53548893e-01  5.63486365e-01  5.78598364e-01  5.86758147e-01
  6.18019603e-01  6.32152809e-01  6.60581163e-01  6.80413769e-01
  7.00565937e-01  7.07272581e-01  7.33854721e-01  9.63287754e-01]
nelec by numeric integration = 145.99999831998198
    CPU time for vxc     38.27 sec, wall time     15.96 sec
E1 = -4118.1939724043095  Ecoul = 1905.4388122256169  Exc = -124.70625624600909
cycle= 1 E= -835.745224210109  delta_E= 5.66  |g|= 0.278  |ddm|= 9.28
    CPU time for cycle= 1     38.76 sec, wall time     16.04 sec
  HOMO = -0.0828159167633024  LUMO = -0.00156176490278754
  mo_energy =
[-1.00546497e+01 -1.00402766e+01 -1.00331433e+01 -1.00297546e+01
 -1.00241092e+01 -1.00210582e+01 -1.00120128e+01 -1.00003140e+01
 -9.99980116e+00 -9.98754913e+00 -9.98637166e+00 -9.98507531e+00
 -9.98466493e+00 -9.98369619e+00 -9.97820867e+00 -9.97367422e+00
 -9.97127133e+00 -9.96490068e+00 -9.94174103e+00 -9.93970948e+00
 -9.93126062e+00 -9.92891607e+00 -8.43900626e-01 -8.18458573e-01
 -8.04071239e-01 -7.67893288e-01 -7.39881020e-01 -7.34568606e-01
 -7.11381008e-01 -6.99044509e-01 -6.88057158e-01 -6.62504510e-01
 -6.28589502e-01 -6.21503166e-01 -5.98946916e-01 -5.64396047e-01
 -5.56798294e-01 -5.51990288e-01 -5.18321571e-01 -5.10050847e-01
 -4.97994993e-01 -4.87361926e-01 -4.55444668e-01 -4.49488479e-01
 -4.32270775e-01 -4.19729055e-01 -4.11512682e-01 -4.03530938e-01
 -3.89364807e-01 -3.77143979e-01 -3.72623451e-01 -3.62711373e-01
 -3.53718418e-01 -3.44028502e-01 -3.37541750e-01 -3.26892059e-01
 -3.22171059e-01 -3.13461668e-01 -3.03959281e-01 -2.96650413e-01
 -2.83094712e-01 -2.70885191e-01 -2.50013495e-01 -2.49093941e-01
 -2.43084656e-01 -2.35883917e-01 -2.22330099e-01 -2.09213526e-01
 -1.91108643e-01 -1.83050209e-01 -1.62229954e-01 -1.41042599e-01
 -8.28159168e-02 -1.56176490e-03  4.44742623e-02  6.53020609e-02
  9.33925083e-02  1.33637344e-01  1.55620113e-01  1.74683337e-01
  1.92360960e-01  2.03280360e-01  2.29632976e-01  2.42869736e-01
  2.79190174e-01  2.93438978e-01  3.05062657e-01  3.16152917e-01
  3.31312803e-01  3.44321071e-01  3.50497790e-01  3.62737125e-01
  3.72193850e-01  4.06162549e-01  4.39951564e-01  4.52244677e-01
  4.61669293e-01  4.69819496e-01  4.82385966e-01  4.86434458e-01
  4.95270675e-01  5.11685390e-01  5.19905249e-01  5.28707365e-01
  5.43210077e-01  5.88164234e-01  6.12979980e-01  6.23655647e-01
  6.41178437e-01  6.48124909e-01  6.70944141e-01  6.92067336e-01
  7.07793679e-01  7.26799589e-01  7.34954817e-01  7.37515919e-01
  7.81474390e-01  7.83757975e-01  8.05641307e-01  8.33245306e-01
  8.50520708e-01  8.67147484e-01  9.07183125e-01  1.10894384e+00]
nelec by numeric integration = 145.9999983224686
    CPU time for vxc     38.31 sec, wall time     16.02 sec
E1 = -4113.482893640388  Ecoul = 1900.6088429531467  Exc = -124.57354689299046
cycle= 2 E= -835.731405365639  delta_E= 0.0138  |g|= 0.35  |ddm|=    1
    CPU time for cycle= 2     38.90 sec, wall time     16.11 sec
  HOMO = -0.101449480770095  LUMO = -0.0166650104809553
  mo_energy =
[-10.02692495 -10.02556037 -10.02147413 -10.0198334  -10.01961453
 -10.0194539  -10.01769365 -10.01747418 -10.01507985 -10.01192657
 -10.01017844 -10.00894768 -10.00809735 -10.00682538 -10.00649142
 -10.00643514 -10.00585369 -10.00051826  -9.99748746  -9.99038884
  -9.98606461  -9.96978307  -0.84943059  -0.83761851  -0.81462282
  -0.7861489   -0.75661234  -0.74292352  -0.72476925  -0.71491935
  -0.69824357  -0.67991744  -0.64319652  -0.62797379  -0.60863981
  -0.57881327  -0.56548163  -0.55962094  -0.53780868  -0.51796933
  -0.50078794  -0.49791846  -0.46973321  -0.46478239  -0.44897111
  -0.43501333  -0.41992871  -0.41399357  -0.4029118   -0.38605097
  -0.37759233  -0.3748927   -0.36129345  -0.35474436  -0.35171497
  -0.33948198  -0.33225055  -0.32933217  -0.31652158  -0.30403827
  -0.28706252  -0.27880765  -0.27074101  -0.26293543  -0.25501135
  -0.23476364  -0.23151873  -0.22885242  -0.20515008  -0.19589102
  -0.17493421  -0.15737658  -0.10144948  -0.01666501   0.03360363
   0.06540658   0.07540551   0.12211024   0.1328932    0.15777433
   0.1778173    0.2149013    0.22736433   0.24067001   0.27648915
   0.28729404   0.30078691   0.30395933   0.31297653   0.3334427
   0.33723208   0.37054186   0.37952018   0.39971686   0.41242964
   0.43862893   0.44929949   0.45608398   0.46516499   0.47478184
   0.48799195   0.49687399   0.49931011   0.52223102   0.53713098
   0.57954739   0.59419046   0.60786837   0.61613164   0.62810232
   0.66301615   0.67196782   0.69113794   0.69886623   0.71698677
   0.72021341   0.75838623   0.77150491   0.79576851   0.81720059
   0.83651391   0.85100092   0.87223931   1.11408499]
nelec by numeric integration = 145.99999831244227
    CPU time for vxc     37.99 sec, wall time     15.85 sec
E1 = -4115.1857238236025  Ecoul = 1902.303548043224  Exc = -124.60078953416102
cycle= 3 E= -835.766773099947  delta_E= -0.0354  |g|= 0.162  |ddm|= 0.805
    CPU time for cycle= 3     38.54 sec, wall time     15.94 sec
  HOMO = -0.106803093149243  LUMO = -0.0233294592473006
  mo_energy =
[-10.04242337 -10.03630981 -10.03256706 -10.02622028 -10.02545334
 -10.02455471 -10.02366052 -10.02336195 -10.02300538 -10.02281406
 -10.0224446  -10.0182859  -10.01536507 -10.01425343 -10.01308488
 -10.01254171 -10.00724175 -10.00635389 -10.00274896 -10.0001969
  -9.99935637  -9.99689316  -0.85391706  -0.84682513  -0.8235707
  -0.78985464  -0.7611997   -0.74871433  -0.72924313  -0.71824323
  -0.70523452  -0.6844602   -0.64298993  -0.64090169  -0.61002495
  -0.58208876  -0.57360381  -0.56310669  -0.53963478  -0.52353144
  -0.51177278  -0.49939117  -0.47074998  -0.46655963  -0.45384097
  -0.43459081  -0.42229038  -0.41831511  -0.40727948  -0.38966813
  -0.38656856  -0.38146178  -0.36647857  -0.36016178  -0.35876819
  -0.34644314  -0.33397227  -0.33219601  -0.32264789  -0.31009203
  -0.29143826  -0.29009471  -0.27184122  -0.26652239  -0.25766617
  -0.24549668  -0.23825102  -0.23242492  -0.20888885  -0.20028706
  -0.18350024  -0.16142267  -0.10680309  -0.02332946   0.0299184
   0.05530017   0.07081476   0.11427971   0.12936831   0.15016627
   0.17450707   0.21895934   0.2210093    0.2320337    0.27060497
   0.2799767    0.2941094    0.29767252   0.3103999    0.33208717
   0.33362011   0.35973326   0.36830772   0.39219996   0.41106048
   0.43399951   0.44538431   0.45481186   0.46620241   0.47085769
   0.47730501   0.49274565   0.49976606   0.51822444   0.52636938
   0.57600722   0.59041625   0.60723889   0.61576173   0.62612373
   0.65478684   0.66889322   0.68721126   0.69746937   0.71168643
   0.71519826   0.7526727    0.76524422   0.78931284   0.81373626
   0.83204171   0.83999261   0.87023196   1.09353826]
nelec by numeric integration = 145.99999831876084
    CPU time for vxc     38.15 sec, wall time     15.88 sec
E1 = -4115.564067330666  Ecoul = 1902.6874998026472  Exc = -124.61525735135177
cycle= 4 E= -835.775632664778  delta_E= -0.00886  |g|= 0.06  |ddm|= 0.368
    CPU time for cycle= 4     38.76 sec, wall time     15.98 sec
  HOMO = -0.106309600229589  LUMO = -0.0227404041165298
  mo_energy =
[-10.04187548 -10.03276117 -10.03138974 -10.02991494 -10.02868076
 -10.02452748 -10.02366771 -10.02299507 -10.02267346 -10.02074724
 -10.01824887 -10.01627679 -10.01451648 -10.0138938  -10.01008962
 -10.00917129 -10.00875936 -10.00782017 -10.00772651 -10.00575958
  -9.99944801  -9.99653953  -0.85343598  -0.84598168  -0.82332276
  -0.78928056  -0.76047772  -0.7489612   -0.72909854  -0.71809928
  -0.70559654  -0.68395149  -0.6442296   -0.63863458  -0.61065417
  -0.58216842  -0.57290775  -0.56336661  -0.53980417  -0.52304509
  -0.51072393  -0.49983286  -0.47034649  -0.46710131  -0.45356249
  -0.43603267  -0.42272217  -0.41874944  -0.40552185  -0.38990395
  -0.38595147  -0.38025927  -0.36588125  -0.36050288  -0.35495831
  -0.34614495  -0.3344437   -0.33156784  -0.32263101  -0.30980555
  -0.29128169  -0.29028729  -0.27364131  -0.26619284  -0.25820225
  -0.24553395  -0.23826713  -0.23273259  -0.20945836  -0.2001992
  -0.18348059  -0.16180624  -0.1063096   -0.0227404    0.02906444
   0.0556279    0.0707151    0.11467905   0.1299662    0.15070392
   0.17392818   0.21441786   0.22091958   0.23172889   0.27267224
   0.28058274   0.2939669    0.29849994   0.31064021   0.33157042
   0.3325543    0.35964626   0.36980952   0.39309437   0.41245918
   0.43384268   0.44799761   0.45425883   0.46534536   0.47282556
   0.47862859   0.49431367   0.49869941   0.5186676    0.52564538
   0.57727448   0.59108503   0.60614681   0.61564698   0.62489489
   0.65570025   0.66745541   0.68669571   0.6979324    0.71296992
   0.71465091   0.75506288   0.7649252    0.78933988   0.81300356
   0.83240142   0.83921727   0.87190199   1.0950753 ]
nelec by numeric integration = 145.99999832215204
    CPU time for vxc     38.33 sec, wall time     15.94 sec
E1 = -4115.520874808633  Ecoul = 1902.6424298569507  Exc = -124.61442325547156
cycle= 5 E= -835.776675992561  delta_E= -0.00104  |g|= 0.0318  |ddm|= 0.158
    CPU time for cycle= 5     39.03 sec, wall time     16.04 sec
  HOMO = -0.105783647990761  LUMO = -0.0219111056827939
  mo_energy =
[-10.03933013 -10.03254584 -10.0289616  -10.02831733 -10.02825321
 -10.02373058 -10.02196018 -10.0207173  -10.02060037 -10.01905641
 -10.01875425 -10.01816575 -10.0128308  -10.01280266 -10.01162002
 -10.00925466 -10.00903981 -10.00662197 -10.00274057 -10.00249094
 -10.00189564  -9.99651847  -0.85257884  -0.84493443  -0.82234772
  -0.78874936  -0.76001301  -0.74817732  -0.72840834  -0.7178009
  -0.70442503  -0.68359865  -0.64287308  -0.63819689  -0.61007819
  -0.58132685  -0.57224855  -0.56319844  -0.53909823  -0.52238677
  -0.50970567  -0.49905365  -0.46990082  -0.4667699   -0.45289966
  -0.43545262  -0.42241306  -0.41799846  -0.40552241  -0.38932753
  -0.38539975  -0.38025564  -0.36543725  -0.35967585  -0.35567571
  -0.34543593  -0.3337087   -0.33122852  -0.3219163   -0.30937975
  -0.29060701  -0.2896803   -0.27276175  -0.2659493   -0.25746551
  -0.2449998   -0.2377841   -0.23196544  -0.2085889   -0.19989793
  -0.1827043   -0.16143678  -0.10578365  -0.02191111   0.02959532
   0.05633081   0.0712928    0.11563504   0.13071462   0.15099778
   0.17476451   0.21663811   0.22166859   0.23247068   0.27258742
   0.28114943   0.2947704    0.29884781   0.31114721   0.33197136
   0.33346584   0.36053013   0.36962045   0.39347427   0.41231122
   0.43488357   0.44737512   0.45496182   0.46589995   0.47238476
   0.47921791   0.49407478   0.49930589   0.51910983   0.52692309
   0.57720716   0.59155349   0.60707859   0.61605759   0.62603162
   0.65583107   0.66844906   0.68709112   0.69832366   0.71321019
   0.71605638   0.75496527   0.76597511   0.79011678   0.81395396
   0.83377534   0.84038923   0.87219977   1.09769234]
nelec by numeric integration = 145.99999832061764
    CPU time for vxc     39.43 sec, wall time     16.50 sec
E1 = -4115.48907773833  Ecoul = 1902.6078118779799  Exc = -124.6119683362955
cycle= 6 E= -835.777041982052  delta_E= -0.000366  |g|= 0.00949  |ddm|= 0.0643
    CPU time for cycle= 6     39.82 sec, wall time     16.56 sec
  HOMO = -0.105612631288981  LUMO = -0.0216730790438952
  mo_energy =
[-10.03868336 -10.03125094 -10.02850879 -10.0274951  -10.02700745
 -10.02356854 -10.02234686 -10.02143247 -10.01982753 -10.01906841
 -10.0186762  -10.01696222 -10.01317628 -10.01293287 -10.00930288
 -10.00883514 -10.00757803 -10.00623159 -10.00394427 -10.00242124
 -10.00240283  -9.99559321  -0.8520798   -0.84480357  -0.8218795
  -0.78859932  -0.75968008  -0.74768564  -0.72824901  -0.71743725
  -0.70413769  -0.68328248  -0.64284132  -0.63787924  -0.60984867
  -0.58109855  -0.57190913  -0.56256279  -0.53896365  -0.5221681
  -0.50940907  -0.49903933  -0.46965881  -0.46639986  -0.45271422
  -0.43504009  -0.42190754  -0.41793073  -0.40538323  -0.38910907
  -0.38505744  -0.37984008  -0.3649915   -0.35944417  -0.35556376
  -0.34523841  -0.33364548  -0.33123848  -0.32176431  -0.30918015
  -0.29013298  -0.28958689  -0.27242795  -0.26564416  -0.25730691
  -0.2444176   -0.23747455  -0.23175994  -0.20852205  -0.19958508
  -0.18238139  -0.16111402  -0.10561263  -0.02167308   0.030018
   0.05681898   0.07169781   0.11577281   0.13086531   0.1515783
   0.17484256   0.21615148   0.22193463   0.23251748   0.27285671
   0.28157048   0.29496176   0.29903717   0.31099077   0.3325308
   0.33354496   0.36122538   0.37014236   0.39392452   0.41254133
   0.43509977   0.44757393   0.45495411   0.46613178   0.47279294
   0.4796381    0.4944918    0.49966642   0.51951958   0.52740687
   0.5774656    0.59180203   0.60744285   0.61631407   0.62640856
   0.65642014   0.66901134   0.68783573   0.6985696    0.71354543
   0.71590265   0.75506512   0.76634523   0.7902314    0.81439515
   0.83388694   0.84075735   0.87218142   1.09780366]
nelec by numeric integration = 145.99999832033754
    CPU time for vxc     37.83 sec, wall time     15.89 sec
E1 = -4115.456288933052  Ecoul = 1902.5744805193683  Exc = -124.61145759374305
cycle= 7 E= -835.777073792833  delta_E= -3.18e-05  |g|= 0.00204  |ddm|= 0.0163
    CPU time for cycle= 7     38.30 sec, wall time     15.96 sec
  HOMO = -0.105620125777833  LUMO = -0.0216389508659123
  mo_energy =
[-10.03889912 -10.03123258 -10.02882558 -10.02758192 -10.0272203
 -10.02348086 -10.02212421 -10.02132107 -10.01930835 -10.01928977
 -10.01822369 -10.01716036 -10.01279518 -10.01276695 -10.00909396
 -10.00899755 -10.00738787 -10.00630003 -10.00395735 -10.00278989
 -10.00244052  -9.99564901  -0.85212076  -0.8447991   -0.82192884
  -0.78849893  -0.7596482   -0.7477469   -0.72819665  -0.71739583
  -0.70415794  -0.68325603  -0.64280204  -0.63791171  -0.60979997
  -0.58109782  -0.5719258   -0.56261194  -0.53893912  -0.52217977
  -0.5094846   -0.49896239  -0.46961232  -0.46641639  -0.45270301
  -0.43505049  -0.4219598   -0.41783493  -0.40532305  -0.38904959
  -0.38509898  -0.37982444  -0.36501337  -0.3594314   -0.35550443
  -0.34523166  -0.33358734  -0.33123979  -0.32175161  -0.30916782
  -0.29019614  -0.28950822  -0.27244331  -0.26559992  -0.25728081
  -0.2445007   -0.23744991  -0.23176459  -0.20845655  -0.19953342
  -0.18237207  -0.16107472  -0.10562013  -0.02163895   0.03009219
   0.05678694   0.07169522   0.1158062    0.13086695   0.15155
   0.1749385    0.21629966   0.22192619   0.23246054   0.27288423
   0.28153803   0.29497825   0.29906244   0.31107684   0.33257555
   0.33360204   0.36113816   0.37010673   0.39391702   0.41261407
   0.4351016    0.44765022   0.45504982   0.46614976   0.47280469
   0.47960299   0.49451336   0.49964041   0.51949354   0.52731852
   0.57755061   0.5918473    0.60743797   0.61636133   0.62636141
   0.65640465   0.66893853   0.68777492   0.69857937   0.71359019
   0.71603331   0.75518062   0.76632766   0.79033935   0.81436438
   0.83388036   0.84072391   0.87226642   1.09759543]
nelec by numeric integration = 145.99999832024352
    CPU time for vxc     37.83 sec, wall time     15.82 sec
E1 = -4115.456706235  Ecoul = 1902.5748887470072  Exc = -124.61144993743223
cycle= 8 E= -835.777075210832  delta_E= -1.42e-06  |g|= 0.00062  |ddm|= 0.00369
    CPU time for cycle= 8     38.24 sec, wall time     15.88 sec
  HOMO = -0.105641044066584  LUMO = -0.0216382724313721
  mo_energy =
[-10.03894421 -10.03132273 -10.02881572 -10.02763258 -10.02728529
 -10.02343519 -10.02209336 -10.02131952 -10.01940963 -10.01938552
 -10.01829693 -10.01717583 -10.01279795 -10.01276171 -10.00919198
 -10.00890287 -10.00754963 -10.00625291 -10.00388957 -10.00271903
 -10.00234917  -9.99575924  -0.85214723  -0.84479923  -0.82195596
  -0.78851805  -0.75968211  -0.74776124  -0.72819868  -0.71742003
  -0.70416901  -0.6832776   -0.64280821  -0.63792614  -0.60980671
  -0.58110959  -0.57194166  -0.5626519   -0.53894815  -0.52218972
  -0.50949412  -0.49898155  -0.46965298  -0.46641903  -0.45270962
  -0.43505715  -0.42198103  -0.41785377  -0.40534341  -0.38906408
  -0.38512128  -0.37985613  -0.36503661  -0.35943528  -0.35550678
  -0.34523225  -0.33357977  -0.33121997  -0.32175192  -0.30917137
  -0.2902051   -0.28951457  -0.27245681  -0.26563054  -0.25727968
  -0.24452059  -0.23747129  -0.23176448  -0.20845314  -0.19955317
  -0.18238675  -0.16109259  -0.10564104  -0.02163827   0.03008231
   0.05676345   0.07167805   0.11580303   0.13086229   0.15150966
   0.17492833   0.2163414    0.22191665   0.23247975   0.27288103
   0.28152346   0.29497726   0.2990549    0.31108477   0.33253941
   0.333578     0.36110242   0.37010229   0.39389978   0.41262569
   0.43510148   0.44765593   0.45502748   0.46613938   0.47276937
   0.47958302   0.49451318   0.49962876   0.51948295   0.52730035
   0.57754099   0.591823     0.60741105   0.61632147   0.62634275
   0.656389     0.66890798   0.68772257   0.69857954   0.71356096
   0.7160155    0.75515973   0.76631342   0.79032514   0.81432525
   0.83387765   0.84070238   0.87227327   1.09758827]
nelec by numeric integration = 145.99999832029786
    CPU time for vxc     38.35 sec, wall time     16.02 sec
E1 = -4115.4589728072615  Ecoul = 1902.5771902344945  Exc = -124.61148496623458
cycle= 9 E= -835.777075324409  delta_E= -1.14e-07  |g|= 0.000292  |ddm|= 0.00124
    CPU time for cycle= 9     38.98 sec, wall time     16.12 sec
  HOMO = -0.105645292644612  LUMO = -0.0216367822188774
  mo_energy =
[-10.03892622 -10.03129407 -10.02880092 -10.02761148 -10.02723762
 -10.02349219 -10.02213332 -10.02133426 -10.01939684 -10.0193197
 -10.01833896 -10.01714285 -10.01282488 -10.01281093 -10.00916148
 -10.00897878 -10.00753744 -10.00628219 -10.00390992 -10.00272635
 -10.00238561  -9.99571706  -0.85214093  -0.84481197  -0.82194903
  -0.78853096  -0.75967954  -0.74775167  -0.7282088   -0.7174242
  -0.70416922  -0.68327978  -0.64281655  -0.63792238  -0.60982363
  -0.58111396  -0.57193718  -0.56263452  -0.5389534   -0.52219195
  -0.50949038  -0.49899207  -0.46964949  -0.46642661  -0.45271453
  -0.43506584  -0.42196623  -0.41786025  -0.40534417  -0.3890699
  -0.38511312  -0.37985252  -0.36503114  -0.35944251  -0.35551176
  -0.34523957  -0.33359587  -0.33122535  -0.321755    -0.30916978
  -0.29019274  -0.28952639  -0.27244983  -0.26562983  -0.25728652
  -0.24450258  -0.2374655   -0.23176932  -0.20846448  -0.19955977
  -0.18238711  -0.16110077  -0.10564529  -0.02163678   0.03007029
   0.05677108   0.07167749   0.11579531   0.13085768   0.15152483
   0.1749152    0.21633459   0.22191697   0.23248314   0.27287836
   0.28152646   0.29497797   0.29905071   0.31107334   0.33254744
   0.33357559   0.36111961   0.37012033   0.39390871   0.41260027
   0.43509763   0.44763934   0.4550222    0.46613232   0.47277774
   0.47958971   0.49449627   0.49962499   0.51947887   0.52731146
   0.57752345   0.59182286   0.6074123    0.61631986   0.62634777
   0.65638629   0.66891976   0.68774157   0.69856895   0.71355871
   0.7160084    0.75515027   0.76631264   0.79031047   0.81433104
   0.83386993   0.8407029    0.87224748   1.09759866]
nelec by numeric integration = 145.99999832030605
    CPU time for vxc     38.82 sec, wall time     16.15 sec
E1 = -4115.458945354734  Ecoul = 1902.5771750875433  Exc = -124.61149730378943
cycle= 10 E= -835.777075356388  delta_E= -3.2e-08  |g|= 8.81e-05  |ddm|= 0.000565
    CPU time for cycle= 10     39.26 sec, wall time     16.22 sec
  HOMO = -0.105648282356939  LUMO = -0.0216399135977691
  mo_energy =
[-10.03890789 -10.03129836 -10.02878498 -10.02760731 -10.02724494
 -10.02348582 -10.02214533 -10.02133142 -10.0194138  -10.01932675
 -10.01832796 -10.01715813 -10.0128259  -10.01282474 -10.00916845
 -10.00898271 -10.00752883 -10.00625704 -10.00391489 -10.00274054
 -10.00239898  -9.99571676  -0.85213952  -0.84480954  -0.82194794
  -0.78853354  -0.75968109  -0.74775506  -0.72821066  -0.71742535
  -0.70416956  -0.68327952  -0.64281874  -0.63792065  -0.60982586
  -0.58111417  -0.57193623  -0.56263575  -0.53895471  -0.52219035
  -0.50948683  -0.49899341  -0.46964952  -0.46642753  -0.45271665
  -0.43506702  -0.42197002  -0.41786488  -0.40534656  -0.38907274
  -0.38510901  -0.37985266  -0.36503172  -0.35944363  -0.35551511
  -0.34523962  -0.33359721  -0.33122588  -0.32175634  -0.30916979
  -0.29019195  -0.28952896  -0.27245212  -0.26563058  -0.2572898
  -0.24450138  -0.23746748  -0.23177192  -0.20846757  -0.1995606
  -0.18238715  -0.16110172  -0.10564828  -0.02163991   0.03006704
   0.05677315   0.07167592   0.11579605   0.13085653   0.1515239
   0.17491145   0.21632448   0.22191783   0.23249212   0.27287682
   0.28152802   0.29497662   0.29904916   0.31107001   0.33254467
   0.33357237   0.36112483   0.37011485   0.39390506   0.41259764
   0.43509494   0.44763597   0.45501756   0.46613003   0.47277662
   0.47959567   0.49449619   0.4996218    0.5194782    0.52731682
   0.57752068   0.59181998   0.60741022   0.61631926   0.62634568
   0.65638447   0.66891811   0.68774265   0.69856555   0.71355911
   0.71600316   0.7551463    0.76631166   0.79030582   0.81433293
   0.83387184   0.84070517   0.8722467    1.09761203]
nelec by numeric integration = 145.99999832030545
    CPU time for vxc     38.47 sec, wall time     15.99 sec
E1 = -4115.459012336061  Ecoul = 1902.5772410754605  Exc = -124.61149631281621
cycle= 11 E= -835.777075358824  delta_E= -2.44e-09  |g|= 3.72e-05  |ddm|= 0.000173
    CPU time for cycle= 11     39.05 sec, wall time     16.08 sec
  HOMO = -0.105647723955483  LUMO = -0.0216376688291016
  mo_energy =
[-10.03891318 -10.03129535 -10.02879279 -10.02760895 -10.02724671
 -10.02348376 -10.0221373  -10.02133219 -10.01940756 -10.01933009
 -10.01832796 -10.01714612 -10.01282247 -10.01281441 -10.00916999
 -10.00897808 -10.00753265 -10.0062651  -10.00391323 -10.00273382
 -10.00239451  -9.99571777  -0.85213977  -0.84480942  -0.8219481
  -0.78853134  -0.75968019  -0.7477535   -0.72820913  -0.71742433
  -0.70416878  -0.68327921  -0.64281704  -0.63792083  -0.60982365
  -0.58111359  -0.57193628  -0.56263536  -0.53895367  -0.52219049
  -0.50948773  -0.49899169  -0.46964925  -0.46642643  -0.4527152
  -0.43506579  -0.4219688   -0.41786212  -0.40534554  -0.38907084
  -0.38511029  -0.37985198  -0.36503141  -0.35944229  -0.3555139
  -0.34523867  -0.33359565  -0.3312259   -0.3217558   -0.30917006
  -0.29019258  -0.28952684  -0.27245211  -0.2656301   -0.25728787
  -0.24450231  -0.23746659  -0.2317706   -0.20846602  -0.19955963
  -0.18238638  -0.1611006   -0.10564772  -0.02163767   0.03006979
   0.05677222   0.0716767    0.11579698   0.13085714   0.15152395
   0.17491411   0.21632562   0.22191791   0.23248911   0.27287766
   0.28152771   0.29497714   0.29905023   0.31107183   0.33254544
   0.33357387   0.36112247   0.37011627   0.39390692   0.41260034
   0.43509672   0.44763778   0.45502032   0.46613207   0.47277663
   0.47959342   0.49449791   0.49962376   0.51947886   0.5273147
   0.57752376   0.59182181   0.60741154   0.61632017   0.62634711
   0.65638642   0.66891903   0.68774155   0.69856758   0.71355938
   0.71600581   0.75514843   0.76631307   0.79030945   0.81433228
   0.83387206   0.84070476   0.87224839   1.09760675]
nelec by numeric integration = 145.9999983203022
    CPU time for vxc     38.52 sec, wall time     16.11 sec
E1 = -4115.458901340675  Ecoul = 1902.5771279124333  Exc = -124.61149414574189
cycle= 12 E= -835.777075359391  delta_E= -5.67e-10  |g|= 1.37e-05  |ddm|= 8.22e-05
    CPU time for cycle= 12     38.98 sec, wall time     16.19 sec
  HOMO = -0.105647517119184  LUMO = -0.0216373471131429
  mo_energy =
[-10.03891405 -10.03129717 -10.02879095 -10.02760863 -10.02724605
 -10.02348414 -10.02213692 -10.02133149 -10.0194051  -10.0193285
 -10.01832893 -10.01715107 -10.01282326 -10.0128143  -10.00916745
 -10.00897574 -10.00753237 -10.0062637  -10.00391243 -10.00273387
 -10.00239204  -9.99571821  -0.85213969  -0.84480902  -0.82194797
  -0.788531    -0.75967992  -0.74775384  -0.72820876  -0.71742389
  -0.70416875  -0.68327893  -0.64281661  -0.63792086  -0.60982313
  -0.58111325  -0.57193617  -0.56263567  -0.53895347  -0.52219025
  -0.50948765  -0.49899124  -0.46964898  -0.46642626  -0.45271503
  -0.43506549  -0.42196921  -0.4178618   -0.4053453   -0.38907057
  -0.38511026  -0.37985196  -0.36503132  -0.35944212  -0.35551365
  -0.34523855  -0.33359526  -0.33122559  -0.3217555   -0.30916985
  -0.29019272  -0.28952649  -0.27245179  -0.26562978  -0.2572878
  -0.24450245  -0.23746663  -0.23177034  -0.2084656   -0.19955912
  -0.18238628  -0.16110021  -0.10564752  -0.02163735   0.03007026
   0.05677238   0.07167701   0.11579705   0.13085747   0.15152383
   0.17491442   0.21632669   0.22191807   0.23248913   0.27287772
   0.28152783   0.2949773    0.29905033   0.31107202   0.33254574
   0.33357421   0.36112278   0.37011553   0.3939064    0.41260068
   0.43509662   0.44763828   0.45502053   0.46613213   0.47277681
   0.47959384   0.49449824   0.49962388   0.5194791    0.52731491
   0.57752408   0.59182184   0.60741171   0.61632038   0.62634692
   0.65638636   0.66891879   0.68774179   0.69856802   0.71355976
   0.71600631   0.75514881   0.76631299   0.79030959   0.81433258
   0.83387246   0.84070507   0.87224875   1.09760737]
nelec by numeric integration = 145.99999832030485
    CPU time for vxc     38.52 sec, wall time     16.00 sec
E1 = -4115.458910505885  Ecoul = 1902.5771364690013  Exc = -124.61149353715467
cycle= 13 E= -835.777075359445  delta_E= -5.46e-11  |g|= 5.03e-06  |ddm|= 2.52e-05
    CPU time for cycle= 13     39.09 sec, wall time     16.08 sec
  HOMO = -0.105647989359585  LUMO = -0.0216375955230506
  mo_energy =
[-10.03891316 -10.03129586 -10.02879184 -10.0276081  -10.02724594
 -10.02348454 -10.02213747 -10.02133152 -10.01940692 -10.01932888
 -10.01832908 -10.01714825 -10.01282303 -10.01281489 -10.00916964
 -10.00897777 -10.00753365 -10.00626349 -10.00391208 -10.00273505
 -10.00239554  -9.99571889  -0.85213977  -0.84480938  -0.82194808
  -0.78853156  -0.75968034  -0.74775369  -0.72820908  -0.71742447
  -0.70416875  -0.6832794   -0.64281709  -0.63792084  -0.60982371
  -0.58111356  -0.57193628  -0.56263556  -0.5389538   -0.52219054
  -0.50948765  -0.49899178  -0.46964943  -0.46642653  -0.45271537
  -0.43506589  -0.42196902  -0.41786221  -0.40534564  -0.38907088
  -0.38511029  -0.37985222  -0.36503147  -0.35944227  -0.35551406
  -0.34523867  -0.33359567  -0.33122585  -0.32175565  -0.30916984
  -0.29019234  -0.28952694  -0.27245196  -0.26563019  -0.25728791
  -0.24450207  -0.23746659  -0.23177065  -0.20846582  -0.19955968
  -0.18238629  -0.16110074  -0.10564799  -0.0216376    0.03006972
   0.05677237   0.07167664   0.11579696   0.13085699   0.15152379
   0.17491399   0.21632699   0.22191795   0.23248936   0.27287759
   0.28152774   0.29497737   0.29905012   0.31107177   0.33254556
   0.3335739    0.36112281   0.37011632   0.39390678   0.41260002
   0.43509674   0.44763762   0.45502008   0.46613174   0.47277639
   0.47959361   0.49449763   0.49962349   0.51947873   0.52731493
   0.57752348   0.59182161   0.60741133   0.61631991   0.62634684
   0.65638627   0.66891867   0.68774142   0.69856736   0.71355936
   0.71600591   0.75514814   0.76631299   0.79030921   0.81433217
   0.83387218   0.84070483   0.87224807   1.09760726]
nelec by numeric integration = 145.99999832030318
    CPU time for vxc     38.17 sec, wall time     15.96 sec
E1 = -4115.458926684748  Ecoul = 1902.5771537259975  Exc = -124.6114946152693
Extra cycle  E= -835.777075359427  delta_E= 1.86e-11  |g|= 8.45e-06  |ddm|= 2.12e-05
    CPU time for scf_cycle    592.00 sec, wall time    243.54 sec
    CPU time for SCF    592.00 sec, wall time    243.54 sec
converged SCF energy = -835.777075359427
nelec by numeric integration = 145.99999832030318
    CPU time for vxc     38.57 sec, wall time     16.03 sec
 ** Mulliken pop  **
pop of  0 C 1s            1.99050
pop of  0 C 2s            1.10223
pop of  0 C 2px           0.98252
pop of  0 C 2py           0.96905
pop of  0 C 2pz           0.96604
pop of  1 C 1s            1.99070
pop of  1 C 2s            1.11276
pop of  1 C 2px           1.01589
pop of  1 C 2py           0.94465
pop of  1 C 2pz           0.95748
pop of  2 C 1s            1.99104
pop of  2 C 2s            1.17110
pop of  2 C 2px           0.97859
pop of  2 C 2py           0.94732
pop of  2 C 2pz           0.99388
pop of  3 C 1s            1.99081
pop of  3 C 2s            1.14413
pop of  3 C 2px           1.02595
pop of  3 C 2py           0.94453
pop of  3 C 2pz           0.96771
pop of  4 C 1s            1.99112
pop of  4 C 2s            1.15922
pop of  4 C 2px           0.99814
pop of  4 C 2py           0.94717
pop of  4 C 2pz           0.99589
pop of  5 C 1s            1.99170
pop of  5 C 2s            1.21687
pop of  5 C 2px           0.94388
pop of  5 C 2py           0.93855
pop of  5 C 2pz           0.92048
pop of  6 C 1s            1.99083
pop of  6 C 2s            1.12928
pop of  6 C 2px           0.99448
pop of  6 C 2py           0.97499
pop of  6 C 2pz           0.96607
pop of  7 C 1s            1.99066
pop of  7 C 2s            1.11477
pop of  7 C 2px           1.00245
pop of  7 C 2py           1.01805
pop of  7 C 2pz           0.97339
pop of  8 C 1s            1.99075
pop of  8 C 2s            1.13193
pop of  8 C 2px           0.98700
pop of  8 C 2py           0.96675
pop of  8 C 2pz           0.93190
pop of  9 C 1s            1.99096
pop of  9 C 2s            1.16497
pop of  9 C 2px           0.97842
pop of  9 C 2py           0.93358
pop of  9 C 2pz           0.93487
pop of  10 C 1s           1.99082
pop of  10 C 2s           1.16927
pop of  10 C 2px          0.98704
pop of  10 C 2py          0.94190
pop of  10 C 2pz          0.97782
pop of  11 C 1s           1.99075
pop of  11 C 2s           1.14471
pop of  11 C 2px          1.00310
pop of  11 C 2py          0.95520
pop of  11 C 2pz          1.00433
pop of  12 C 1s           1.99056
pop of  12 C 2s           1.13601
pop of  12 C 2px          1.01356
pop of  12 C 2py          0.94635
pop of  12 C 2pz          0.92880
pop of  13 C 1s           1.99059
pop of  13 C 2s           1.12369
pop of  13 C 2px          0.97012
pop of  13 C 2py          0.95333
pop of  13 C 2pz          0.94830
pop of  14 C 1s           1.99120
pop of  14 C 2s           1.18709
pop of  14 C 2px          0.93864
pop of  14 C 2py          0.94045
pop of  14 C 2pz          0.96855
pop of  15 C 1s           1.99059
pop of  15 C 2s           1.11628
pop of  15 C 2px          1.05605
pop of  15 C 2py          0.95410
pop of  15 C 2pz          1.00231
pop of  16 C 1s           1.99062
pop of  16 C 2s           1.10843
pop of  16 C 2px          1.02801
pop of  16 C 2py          0.95025
pop of  16 C 2pz          0.92417
pop of  17 C 1s           1.99083
pop of  17 C 2s           1.15614
pop of  17 C 2px          0.94599
pop of  17 C 2py          0.94759
pop of  17 C 2pz          0.94690
pop of  18 C 1s           1.99084
pop of  18 C 2s           1.06277
pop of  18 C 2px          0.99251
pop of  18 C 2py          0.99492
pop of  18 C 2pz          1.01614
pop of  19 C 1s           1.99090
pop of  19 C 2s           1.16077
pop of  19 C 2px          1.00663
pop of  19 C 2py          0.94700
pop of  19 C 2pz          0.99746
pop of  20 C 1s           1.99145
pop of  20 C 2s           1.01983
pop of  20 C 2px          1.04690
pop of  20 C 2py          1.13354
pop of  20 C 2pz          1.01965
pop of  21 C 1s           1.99175
pop of  21 C 2s           1.24588
pop of  21 C 2px          0.95000
pop of  21 C 2py          0.92000
pop of  21 C 2pz          0.89256
pop of  22 H 1s           0.89598
pop of  23 H 1s           0.94384
pop of  24 H 1s           0.88444
pop of  25 H 1s           0.98596
pop of  26 H 1s           0.94288
pop of  27 H 1s           0.90006
pop of  28 H 1s           0.92609
pop of  29 H 1s           0.90188
pop of  30 H 1s           0.95661
pop of  31 H 1s           0.88870
pop of  32 H 1s           0.91846
pop of  33 H 1s           0.91495
pop of  34 H 1s           0.85036
pop of  35 H 1s           0.96190
 ** Mulliken atomic charges  **
charge of    0C =     -0.01035
charge of    1C =     -0.02148
charge of    2C =     -0.08192
charge of    3C =     -0.07313
charge of    4C =     -0.09154
charge of    5C =     -0.01147
charge of    6C =     -0.05565
charge of    7C =     -0.09932
charge of    8C =     -0.00832
charge of    9C =     -0.00278
charge of   10C =     -0.06685
charge of   11C =     -0.09809
charge of   12C =     -0.01527
charge of   13C =      0.01396
charge of   14C =     -0.02592
charge of   15C =     -0.11933
charge of   16C =     -0.00148
charge of   17C =      0.01255
charge of   18C =     -0.05718
charge of   19C =     -0.10277
charge of   20C =     -0.21136
charge of   21C =     -0.00019
charge of   22H =      0.10402
charge of   23H =      0.05616
charge of   24H =      0.11556
charge of   25H =      0.01404
charge of   26H =      0.05712
charge of   27H =      0.09994
charge of   28H =      0.07391
charge of   29H =      0.09812
charge of   30H =      0.04339
charge of   31H =      0.11130
charge of   32H =      0.08154
charge of   33H =      0.08505
charge of   34H =      0.14964
charge of   35H =      0.03810
Dipole moment(X, Y, Z, Debye): -0.20392,  0.37623, -0.24956
nelec by numeric integration = 145.99999832030318
    CPU time for vxc     38.21 sec, wall time     15.93 sec
E1 = -4115.458926684748  Ecoul = 1902.5771537259975  Exc = -124.6114946152693
nelec by numeric integration = 145.99999832030318
    CPU time for vxc     37.93 sec, wall time     15.96 sec
E1 = -4115.458926684748  Ecoul = 1902.577153725998  Exc = -124.6114946152693
