System: uname_result(system='Linux', node='cosmopc18', release='5.15.0-97-generic', version='#107-Ubuntu SMP Wed Feb 7 13:26:48 UTC 2024', machine='x86_64')  Threads 4
Python 3.11.8 (main, Feb 26 2024, 21:39:34) [GCC 11.2.0]
numpy 1.26.4  scipy 1.11.4
Date: Tue Apr  9 14:57:02 2024
PySCF version 2.3.0
PySCF path  /home/saade/miniconda3/envs/tutorial/lib/python3.11/site-packages/pyscf

[ENV] PYSCFAD_BACKEND torch
[CONFIG] conf_file None
[INPUT] verbose = 5
[INPUT] max_memory = 4000 
[INPUT] num. atoms = 36
[INPUT] num. electrons = 146
[INPUT] charge = 0
[INPUT] spin (= nelec alpha-beta = 2S) = 0
[INPUT] symmetry False subgroup None
[INPUT] Mole.unit = angstrom
[INPUT] Symbol           X                Y                Z      unit          X                Y                Z       unit  Magmom
[INPUT]  1 C      0.021744000000   3.660265000000   0.841147000000 AA    0.041090204853   6.916898393331   1.589537460500 Bohr   0.0
[INPUT]  2 C      0.133875000000   3.652259000000  -0.778482000000 AA    0.252987084926   6.901769245978  -1.471117772904 Bohr   0.0
[INPUT]  3 C      0.004668000000   4.927923000000   1.407015000000 AA    0.008821241549   9.312424832945   2.658873003155 Bohr   0.0
[INPUT]  4 C      0.059341000000   2.409700000000   1.441456000000 AA    0.112138237958   4.553673042364   2.723957060611 Bohr   0.0
[INPUT]  5 C      0.001325000000   4.976539000000  -1.483563000000 AA    0.002503887115   9.404295758217  -2.803527758538 Bohr   0.0
[INPUT]  6 C     -0.113826000000   2.600034000000  -1.426098000000 AA   -0.215099965855   4.913352174557  -2.694934646790 Bohr   0.0
[INPUT]  7 C     -0.027760000000   6.073482000000  -0.661722000000 AA   -0.052458797218  11.477217602476  -1.250473350599 Bohr   0.0
[INPUT]  8 C     -0.087267000000   6.051924000000   0.836947000000 AA   -0.164910729712  11.436478886682   1.581600610776 Bohr   0.0
[INPUT]  9 C     -0.115434000000   1.070032000000   0.595151000000 AA   -0.218138645463   2.022067424521   1.124672392761 Bohr   0.0
[INPUT] 10 C     -0.029868000000   1.196794000000  -0.695171000000 AA   -0.056442339889   2.261612887523  -1.313682799740 Bohr   0.0
[INPUT] 11 C      0.045438000000   0.085094000000   1.411976000000 AA    0.085865375648   0.160804354844   2.668247934459 Bohr   0.0
[INPUT] 12 C      0.042767000000  -0.043636000000  -1.551310000000 AA    0.080817917169  -0.082460089172  -2.931551034299 Bohr   0.0
[INPUT] 13 C      0.034844000000  -1.240489000000   0.611575000000 AA    0.065845617084  -2.344184470536   1.155709254631 Bohr   0.0
[INPUT] 14 C      0.144786000000  -1.186831000000  -0.831896000000 AA    0.273605886671  -2.242785546144  -1.572055604121 Bohr   0.0
[INPUT] 15 C      0.087921000000  -2.477225000000   1.399027000000 AA    0.166146610598  -4.681276798926   2.643777870872 Bohr   0.0
[INPUT] 16 C     -0.136244000000  -2.396028000000  -1.485457000000 AA   -0.257463846115  -4.527836706789  -2.807106899818 Bohr   0.0
[INPUT] 17 C      0.030893000000  -3.503140000000   0.955861000000 AA    0.058379309166  -6.619975176009   1.806315503153 Bohr   0.0
[INPUT] 18 C      0.204047000000  -3.750446000000  -0.586361000000 AA    0.385592946539  -7.087315784971  -1.108061700126 Bohr   0.0
[INPUT] 19 C     -0.065760000000  -5.173683000000   1.408444000000 AA   -0.124268389951  -9.776843925318   2.661573421787 Bohr   0.0
[INPUT] 20 C      0.096841000000  -4.954523000000  -1.193079000000 AA    0.183002967629  -9.362691547858  -2.254592554970 Bohr   0.0
[INPUT] 21 C     -0.119065000000  -5.950666000000   0.771570000000 AA   -0.225000241021 -11.245128998761   1.458055985931 Bohr   0.0
[INPUT] 22 C      0.218325000000  -5.986693000000  -0.715654000000 AA    0.412574456146 -11.313210161851  -1.352390059949 Bohr   0.0
[INPUT] 23 H     -0.011987000000   4.928712000000   2.375922000000 AA   -0.022652147055   9.313915826857   4.489841873329 Bohr   0.0
[INPUT] 24 H      0.035869000000   2.420226000000   2.574138000000 AA    0.067782586362   4.573564299552   4.864415826836 Bohr   0.0
[INPUT] 25 H     -0.056452000000   4.931381000000  -2.489185000000 AA   -0.106678819184   9.318959505884  -4.703877923375 Bohr   0.0
[INPUT] 26 H     -0.115890000000   2.403813000000  -2.443816000000 AA   -0.219000360576   4.542548224669  -4.618142938830 Bohr   0.0
[INPUT] 27 H      0.123564000000   7.039327000000  -1.269945000000 AA    0.233502118856  13.302400131256  -2.399848243261 Bohr   0.0
[INPUT] 28 H      0.018148000000   7.131564000000   1.287498000000 AA    0.034294749709  13.476702799808   2.433018605925 Bohr   0.0
[INPUT] 29 H     -0.069005000000  -0.048943000000   2.570261000000 AA   -0.130400551226  -0.092488865715   4.857089358651 Bohr   0.0
[INPUT] 30 H      0.028092000000  -0.003972000000  -2.523547000000 AA    0.053086186291  -0.007505992167  -4.768812692468 Bohr   0.0
[INPUT] 31 H      0.025439000000  -2.315732000000   2.484186000000 AA    0.048072742883  -4.376099257891   4.694431182479 Bohr   0.0
[INPUT] 32 H     -0.255691000000  -2.274447000000  -2.483996000000 AA   -0.483185962516  -4.298081914839  -4.694072134515 Bohr   0.0
[INPUT] 33 H      0.055766000000  -4.880544000000   2.584027000000 AA    0.105382467062  -9.222891498889   4.883103328481 Bohr   0.0
[INPUT] 34 H     -0.053626000000  -4.852570000000  -2.567160000000 AA   -0.101338453156  -9.170028300281  -4.851229317938 Bohr   0.0
[INPUT] 35 H      0.137313000000  -7.155422000000   1.123155000000 AA    0.259483963342 -13.521787885688   2.122455345436 Bohr   0.0
[INPUT] 36 H     -0.027345000000  -7.100345000000  -1.299535000000 AA   -0.051674560876 -13.417707439925  -2.455765239287 Bohr   0.0
[INPUT] ---------------- BASIS SET ---------------- 
[INPUT] l, kappa, [nprim/nctr], expnt,             c_1 c_2 ...
[INPUT] H
[INPUT] 0    0    [3    /1   ]  3.42525091        0.15432897
                                0.62391373        0.53532814
                                0.1688554         0.44463454
[INPUT] C
[INPUT] 0    0    [3    /1   ]  71.616837         0.15432897
                                13.045096         0.53532814
                                3.5305122         0.44463454
[INPUT] 0    0    [3    /1   ]  2.9412494         -0.09996723
                                0.6834831         0.39951283
                                0.2222899         0.70011547
[INPUT] 1    0    [3    /1   ]  2.9412494         0.15591627
                                0.6834831         0.60768372
                                0.2222899         0.39195739

nuclear repulsion = 1494.83819218627
number of shells = 80
number of NR pGTOs = 372
number of NR cGTOs = 124
basis = sto3g
ecp = {}
CPU time:     46121.59
atom C rad-grids = 99, ang-grids = [ 50  50  50  50  50  50  50  50  50  50  50  50  50  50  50  50  50  50
  50  50  50  50  50  50  50  50  50  50  50  50  50  86  86  86  86  86
  86  86  86  86  86  86  86 434 434 434 434 434 434 434 434 434 590 590
 590 590 590 590 590 590 590 590 590 590 590 590 590 590 590 590 590 590
 590 590 590 590 590 590 590 434 434 434 434 434 434 434 434 434 434 434
 434 434 434 434 434 434 434 434 434]
atom H rad-grids = 99, ang-grids = [ 50  50  50  50  50  50  50  50  50  50  50  50  50  50  50  50  50  50
  50  50  50  50  50  50  50  50  50  50  86  86  86  86  86  86  86 434
 434 434 434 434 434 434 434 590 590 590 590 590 590 590 590 590 590 590
 590 590 590 590 590 590 590 590 590 590 590 590 590 590 590 434 434 434
 434 434 434 434 434 434 434 434 434 434 434 434 434 434 434 434 434 434
 434 434 434 434 434 434 434 434 434]
tot_boxes 5270, boxes in each direction [ 8 29 15]
Padding 0 grids
tot grids = 1157832


******** <class 'pyscf.dft.rks.RKS'> ********
method = RKS
initial guess = minao
damping factor = 0
level_shift factor = 0
DIIS = <class 'pyscf.scf.diis.CDIIS'>
diis_start_cycle = 1
diis_space = 8
SCF conv_tol = 1e-10
SCF conv_tol_grad = None
SCF max_cycles = 50
direct_scf = True
direct_scf_tol = 1e-13
chkfile to save SCF result = /home/saade/mlelec/tutorials/tmpuz95jk4k
max_memory 4000 MB (current use 638 MB)
XC library pyscf.dft.libxc version 6.1.0
    S. Lehtola, C. Steigemann, M. J.T. Oliveira, and M. A.L. Marques.,  SoftwareX 7, 1–5 (2018)
XC functionals = b3lypg
    P. J. Stephens, F. J. Devlin, C. F. Chabalowski, and M. J. Frisch.,  J. Phys. Chem. 98, 11623 (1994)
radial grids: 
    Treutler-Ahlrichs [JCP 102, 346 (1995); DOI:10.1063/1.469408] (M4) radial grids
    
becke partition: Becke, JCP 88, 2547 (1988); DOI:10.1063/1.454033
pruning grids: <function nwchem_prune at 0x7f9db5616ca0>
grids dens level: 3
symmetrized grids: False
atomic radii adjust function: <function treutler_atomic_radii_adjust at 0x7f9db5617380>
User specified grid scheme (99, 590)
small_rho_cutoff = 1e-07
Set gradient conv threshold to 1e-05
Initial guess from minao.
nelec by numeric integration = 145.2685071898598
    CPU time for vxc     37.35 sec, wall time     15.60 sec
E1 = -4088.9171674633753  Ecoul = 1878.685457177422  Exc = -126.07804466173636
init E= -841.471562761418
cond(S) = 44.22705265157532
    CPU time for initialize scf     47.46 sec, wall time     18.03 sec
  HOMO = -0.221653355538929  LUMO = -0.134803126951793
  mo_energy =
[-1.01877668e+01 -1.01724956e+01 -1.01544616e+01 -1.01363227e+01
 -1.01304806e+01 -1.01277715e+01 -1.01258211e+01 -1.01173619e+01
 -1.01120416e+01 -1.01116476e+01 -1.01098848e+01 -1.01017618e+01
 -1.01015326e+01 -1.01012393e+01 -1.00921551e+01 -1.00917019e+01
 -1.00915217e+01 -1.00890953e+01 -1.00877701e+01 -1.00846443e+01
 -1.00797275e+01 -1.00767170e+01 -1.10367853e+00 -1.07707659e+00
 -1.04206235e+00 -1.01223976e+00 -9.70635350e-01 -9.57484856e-01
 -9.51195580e-01 -8.98596471e-01 -8.63292270e-01 -8.30055454e-01
 -8.13137251e-01 -7.44080049e-01 -7.30996584e-01 -7.07745429e-01
 -6.81051474e-01 -6.65954128e-01 -6.39595163e-01 -6.32764873e-01
 -5.86831617e-01 -5.83436441e-01 -5.67453925e-01 -5.61045462e-01
 -5.43575374e-01 -5.22682515e-01 -5.22310761e-01 -5.05954759e-01
 -4.99606425e-01 -4.93306319e-01 -4.80172157e-01 -4.73581118e-01
 -4.63823204e-01 -4.59018213e-01 -4.49096363e-01 -4.30160640e-01
 -4.28628897e-01 -4.13395264e-01 -4.09582084e-01 -3.98793967e-01
 -3.90991683e-01 -3.90006605e-01 -3.78735424e-01 -3.63200394e-01
 -3.56919556e-01 -3.49053348e-01 -3.41084643e-01 -3.24558644e-01
 -2.97864933e-01 -2.72122030e-01 -2.55524525e-01 -2.41359989e-01
 -2.21653356e-01 -1.34803127e-01 -1.04725824e-01 -8.46500331e-02
 -2.72309909e-02 -1.19912838e-02  2.11644833e-03  9.41363961e-03
  2.93441186e-02  5.27470270e-02  6.26871714e-02  1.03129325e-01
  1.18443431e-01  1.33680789e-01  1.42491769e-01  1.52940523e-01
  1.71479194e-01  1.81116498e-01  1.95774840e-01  2.14906461e-01
  2.18634552e-01  2.29930976e-01  2.46102215e-01  2.48227941e-01
  2.56664313e-01  2.74317060e-01  2.93714583e-01  2.98770633e-01
  3.20338914e-01  3.36643485e-01  3.62590838e-01  3.71726994e-01
  4.12337864e-01  4.28202379e-01  4.35288700e-01  4.45410188e-01
  4.48645588e-01  4.90310208e-01  5.08335373e-01  5.12775036e-01
  5.24565591e-01  5.41188802e-01  5.71582452e-01  6.04759880e-01
  6.25186158e-01  6.80642222e-01  6.90274744e-01  7.18321947e-01
  7.72618846e-01  8.87201490e-01  9.44632999e-01  1.22339248e+00]
nelec by numeric integration = 146.00000588586144
    CPU time for vxc     38.38 sec, wall time     15.92 sec
E1 = -4104.8593524063535  Ecoul = 1899.4268570572244  Exc = -124.80658676972733
cycle= 1 E= -835.400889932585  delta_E= 6.07  |g|= 0.315  |ddm|= 9.29
    CPU time for cycle= 1     38.66 sec, wall time     15.97 sec
  HOMO = -0.102897580036475  LUMO = 0.0200643693691342
  mo_energy =
[-10.02460186 -10.02240001 -10.00125478  -9.99948316  -9.99945846
  -9.99935986  -9.99926661  -9.99746715  -9.9934682   -9.98061059
  -9.97987688  -9.97961184  -9.97531047  -9.97232988  -9.96582834
  -9.96499105  -9.96476614  -9.96302259  -9.95159189  -9.9510061
  -9.94998503  -9.93846242  -0.8252524   -0.80901207  -0.79726178
  -0.76881128  -0.74530687  -0.73298568  -0.7168712   -0.70695448
  -0.67409592  -0.64809748  -0.63376558  -0.58698721  -0.58071274
  -0.56525266  -0.53565034  -0.53207092  -0.49988214  -0.4856079
  -0.45937691  -0.44925513  -0.44637832  -0.43943079  -0.42682334
  -0.41753909  -0.40971567  -0.3987775   -0.3852525   -0.37327019
  -0.36527928  -0.35462556  -0.34707316  -0.33901992  -0.3295205
  -0.32684945  -0.31811429  -0.30441435  -0.29417874  -0.28850405
  -0.27680646  -0.26976282  -0.26887926  -0.24777311  -0.24075803
  -0.2327086   -0.2251507   -0.21242663  -0.19543613  -0.15743555
  -0.14691688  -0.12582326  -0.10289758   0.02006437   0.04839954
   0.06787009   0.12155971   0.15262323   0.16443398   0.17723237
   0.18353041   0.21472206   0.23280659   0.26843468   0.27481443
   0.29438531   0.30605383   0.30878992   0.32035636   0.33985917
   0.35098709   0.35898569   0.37291466   0.37590997   0.38684485
   0.39707347   0.40338989   0.4256068    0.43332301   0.46336095
   0.47634131   0.49207824   0.51253889   0.52145777   0.56421935
   0.58122485   0.59294092   0.60090365   0.62780394   0.63972213
   0.66430605   0.67075258   0.6846505    0.69743518   0.72421594
   0.77670424   0.78433433   0.84256644   0.86033593   0.87262777
   0.94412583   1.08358804   1.14910795   1.44719718]
nelec by numeric integration = 146.00000587028578
    CPU time for vxc     38.92 sec, wall time     16.16 sec
E1 = -4098.589196647463  Ecoul = 1892.9369632654682  Exc = -124.60246349663066
cycle= 2 E= -835.416504692354  delta_E= -0.0156  |g|= 0.263  |ddm|= 0.941
    CPU time for cycle= 2     39.38 sec, wall time     16.23 sec
  HOMO = -0.122172506049483  LUMO = 0.00252992039439599
  mo_energy =
[-1.00552231e+01 -1.00428753e+01 -1.00338505e+01 -1.00290645e+01
 -1.00276217e+01 -1.00249350e+01 -1.00205832e+01 -1.00203104e+01
 -1.00181054e+01 -1.00158002e+01 -1.00150022e+01 -1.00129351e+01
 -1.00116918e+01 -1.00113277e+01 -1.00059146e+01 -1.00039102e+01
 -1.00034068e+01 -1.00016665e+01 -1.00012787e+01 -9.99658239e+00
 -9.98192616e+00 -9.97805171e+00 -8.66599771e-01 -8.38207075e-01
 -8.15068805e-01 -7.97733537e-01 -7.75100774e-01 -7.60519937e-01
 -7.54630185e-01 -7.15251324e-01 -6.88959846e-01 -6.64832207e-01
 -6.54430835e-01 -6.03282637e-01 -5.93220864e-01 -5.76249918e-01
 -5.53109522e-01 -5.42933984e-01 -5.20732166e-01 -5.14982173e-01
 -4.77123483e-01 -4.75180472e-01 -4.64021946e-01 -4.58191037e-01
 -4.46109558e-01 -4.28710957e-01 -4.26503212e-01 -4.08080449e-01
 -3.99077032e-01 -3.95134927e-01 -3.89921855e-01 -3.74290016e-01
 -3.67339957e-01 -3.60361109e-01 -3.48765533e-01 -3.40311520e-01
 -3.30357526e-01 -3.20323346e-01 -3.16062237e-01 -3.03449769e-01
 -2.98985162e-01 -2.94730893e-01 -2.92312075e-01 -2.74162518e-01
 -2.62633046e-01 -2.51936490e-01 -2.50852336e-01 -2.33125384e-01
 -2.03881485e-01 -1.77581732e-01 -1.68434860e-01 -1.43887896e-01
 -1.22172506e-01  2.52992039e-03  3.26446514e-02  5.40569880e-02
  1.12472512e-01  1.20204283e-01  1.46522136e-01  1.52014694e-01
  1.62097942e-01  1.81449134e-01  2.07503095e-01  2.47365251e-01
  2.58557804e-01  2.75064622e-01  2.82999986e-01  2.97540904e-01
  3.12771182e-01  3.16114293e-01  3.22080470e-01  3.41087109e-01
  3.58211538e-01  3.60404447e-01  3.83516670e-01  3.88348047e-01
  3.94101844e-01  4.13644665e-01  4.25591527e-01  4.31496154e-01
  4.59577727e-01  4.71685698e-01  5.00760305e-01  5.08359566e-01
  5.50194050e-01  5.68631948e-01  5.73808168e-01  5.85257303e-01
  5.94898042e-01  6.26563073e-01  6.46913307e-01  6.51712604e-01
  6.63068565e-01  6.80923749e-01  7.14444856e-01  7.40882910e-01
  7.63165262e-01  8.27083279e-01  8.35425619e-01  8.63282736e-01
  9.16711979e-01  1.02838832e+00  1.10115359e+00  1.37730908e+00]
nelec by numeric integration = 146.00000584439582
    CPU time for vxc     37.74 sec, wall time     15.80 sec
E1 = -4101.033132429386  Ecoul = 1895.4348998046896  Exc = -124.67586156789825
cycle= 3 E= -835.435902006322  delta_E= -0.0194  |g|= 0.137  |ddm|= 0.53
    CPU time for cycle= 3     38.03 sec, wall time     15.86 sec
  HOMO = -0.125984577771478  LUMO = -0.00226579921975878
  mo_energy =
[-1.00486742e+01 -1.00365797e+01 -1.00349461e+01 -1.00282918e+01
 -1.00265748e+01 -1.00237723e+01 -1.00226158e+01 -1.00222300e+01
 -1.00217065e+01 -1.00198966e+01 -1.00186024e+01 -1.00185194e+01
 -1.00179190e+01 -1.00149259e+01 -1.00146706e+01 -1.00139978e+01
 -1.00101109e+01 -1.00049679e+01 -1.00047996e+01 -1.00044436e+01
 -9.99848250e+00 -9.99782072e+00 -8.59306125e-01 -8.44285727e-01
 -8.19219176e-01 -8.01261072e-01 -7.72552052e-01 -7.62519335e-01
 -7.58442036e-01 -7.20844855e-01 -6.95261553e-01 -6.68398226e-01
 -6.55967819e-01 -6.06233974e-01 -6.00283079e-01 -5.80780505e-01
 -5.56640068e-01 -5.47496634e-01 -5.20170649e-01 -5.12631270e-01
 -4.78233837e-01 -4.73561491e-01 -4.66096691e-01 -4.58934248e-01
 -4.45962050e-01 -4.31262956e-01 -4.29362799e-01 -4.15445799e-01
 -4.04490691e-01 -3.93750073e-01 -3.88681296e-01 -3.76376844e-01
 -3.73023366e-01 -3.63010940e-01 -3.49676064e-01 -3.44016468e-01
 -3.35980633e-01 -3.24179604e-01 -3.19183959e-01 -3.06976308e-01
 -2.98947755e-01 -2.96699018e-01 -2.91250444e-01 -2.72431055e-01
 -2.64566535e-01 -2.58228445e-01 -2.53956939e-01 -2.38179658e-01
 -2.10056187e-01 -1.78657707e-01 -1.70903972e-01 -1.47039789e-01
 -1.25984578e-01 -2.26579922e-03  2.79405671e-02  4.79270528e-02
  1.05704010e-01  1.24562565e-01  1.40470865e-01  1.50263875e-01
  1.67440738e-01  1.85820852e-01  2.05156949e-01  2.43196869e-01
  2.56257624e-01  2.73087811e-01  2.82977886e-01  2.94424166e-01
  3.08056121e-01  3.17335180e-01  3.22473310e-01  3.49135908e-01
  3.53069257e-01  3.57146529e-01  3.80010980e-01  3.80546796e-01
  3.96038603e-01  4.05597716e-01  4.18561456e-01  4.35677739e-01
  4.57002349e-01  4.69762281e-01  4.94764413e-01  5.01006090e-01
  5.44647916e-01  5.62826960e-01  5.70985403e-01  5.82888079e-01
  5.90156194e-01  6.22134143e-01  6.42302698e-01  6.48576779e-01
  6.60154573e-01  6.74558991e-01  7.02116978e-01  7.49073785e-01
  7.58311843e-01  8.17957054e-01  8.31646110e-01  8.55381272e-01
  9.13546843e-01  1.03999310e+00  1.10094513e+00  1.38401674e+00]
nelec by numeric integration = 146.00000587303444
    CPU time for vxc     38.16 sec, wall time     15.77 sec
E1 = -4101.2704194470825  Ecoul = 1895.6697377732357  Exc = -124.67856746071377
cycle= 4 E= -835.441056948289  delta_E= -0.00515  |g|= 0.068  |ddm|= 0.28
    CPU time for cycle= 4     38.64 sec, wall time     15.84 sec
  HOMO = -0.125907167022939  LUMO = -0.00170688465190388
  mo_energy =
[-1.00460315e+01 -1.00339321e+01 -1.00331267e+01 -1.00260060e+01
 -1.00257135e+01 -1.00236818e+01 -1.00229296e+01 -1.00225313e+01
 -1.00221511e+01 -1.00219524e+01 -1.00216524e+01 -1.00189971e+01
 -1.00165960e+01 -1.00158529e+01 -1.00146493e+01 -1.00142193e+01
 -1.00087045e+01 -1.00084812e+01 -1.00062723e+01 -1.00004288e+01
 -1.00001407e+01 -9.99996937e+00 -8.60090602e-01 -8.43051710e-01
 -8.19080714e-01 -8.01251230e-01 -7.71044069e-01 -7.62178396e-01
 -7.57405211e-01 -7.21441224e-01 -6.93828481e-01 -6.68560368e-01
 -6.56004841e-01 -6.06285097e-01 -5.98792896e-01 -5.80594726e-01
 -5.55213312e-01 -5.46647391e-01 -5.20500131e-01 -5.12724089e-01
 -4.78057039e-01 -4.74018209e-01 -4.65086324e-01 -4.58998192e-01
 -4.46007665e-01 -4.30435135e-01 -4.28760081e-01 -4.14859941e-01
 -4.03466838e-01 -3.93457207e-01 -3.89155841e-01 -3.75774834e-01
 -3.72538318e-01 -3.62357393e-01 -3.49701938e-01 -3.43574543e-01
 -3.36661776e-01 -3.24423507e-01 -3.19354231e-01 -3.06974000e-01
 -2.99082765e-01 -2.96855984e-01 -2.93348550e-01 -2.72398981e-01
 -2.64530853e-01 -2.57081094e-01 -2.53704765e-01 -2.37322870e-01
 -2.11003048e-01 -1.78621573e-01 -1.71143074e-01 -1.47764779e-01
 -1.25907167e-01 -1.70688465e-03  2.76711958e-02  4.83510397e-02
  1.05462637e-01  1.24323310e-01  1.41978387e-01  1.50741972e-01
  1.65943275e-01  1.84135766e-01  2.04975541e-01  2.43786519e-01
  2.56005497e-01  2.73388774e-01  2.83312749e-01  2.95043292e-01
  3.07380982e-01  3.17165508e-01  3.21337451e-01  3.46692636e-01
  3.53128177e-01  3.57307046e-01  3.78922608e-01  3.81144123e-01
  3.94555614e-01  4.04657974e-01  4.18832316e-01  4.34586914e-01
  4.58501696e-01  4.71256059e-01  4.96555201e-01  5.03855024e-01
  5.47589654e-01  5.64268736e-01  5.71565476e-01  5.83393338e-01
  5.91169608e-01  6.21823129e-01  6.43459548e-01  6.48783814e-01
  6.60708298e-01  6.76047965e-01  7.06623076e-01  7.45458474e-01
  7.57918499e-01  8.20528439e-01  8.32477684e-01  8.54335021e-01
  9.14573898e-01  1.03701076e+00  1.10107209e+00  1.38526970e+00]
nelec by numeric integration = 146.0000058625471
    CPU time for vxc     37.96 sec, wall time     15.79 sec
E1 = -4101.208319513031  Ecoul = 1895.6062414309147  Exc = -124.67854065797678
cycle= 5 E= -835.442426553821  delta_E= -0.00137  |g|= 0.0282  |ddm|= 0.125
    CPU time for cycle= 5     38.34 sec, wall time     15.85 sec
  HOMO = -0.125760522619572  LUMO = -0.00149459456355306
  mo_energy =
[-1.00438926e+01 -1.00323701e+01 -1.00318118e+01 -1.00239362e+01
 -1.00238409e+01 -1.00235792e+01 -1.00216772e+01 -1.00214364e+01
 -1.00202202e+01 -1.00195795e+01 -1.00192910e+01 -1.00185047e+01
 -1.00153000e+01 -1.00145491e+01 -1.00143231e+01 -1.00122059e+01
 -1.00113452e+01 -1.00045918e+01 -1.00038694e+01 -1.00031510e+01
 -1.00026336e+01 -1.00024821e+01 -8.58574170e-01 -8.42689551e-01
 -8.18234313e-01 -7.99959638e-01 -7.70483384e-01 -7.61531725e-01
 -7.57553511e-01 -7.20556211e-01 -6.93901892e-01 -6.67732485e-01
 -6.55690779e-01 -6.05790953e-01 -5.98459907e-01 -5.80094183e-01
 -5.55344813e-01 -5.46424122e-01 -5.19872358e-01 -5.12021251e-01
 -4.77476070e-01 -4.73148799e-01 -4.65016783e-01 -4.58363100e-01
 -4.45208916e-01 -4.30511580e-01 -4.28444223e-01 -4.14140726e-01
 -4.03268373e-01 -3.93281779e-01 -3.88784070e-01 -3.75236780e-01
 -3.71902540e-01 -3.61806599e-01 -3.49126239e-01 -3.43405484e-01
 -3.35541481e-01 -3.23505072e-01 -3.18491129e-01 -3.06376438e-01
 -2.98063693e-01 -2.96412018e-01 -2.92510017e-01 -2.71854760e-01
 -2.64434992e-01 -2.56773254e-01 -2.53628200e-01 -2.37337872e-01
 -2.10010463e-01 -1.78271972e-01 -1.70665890e-01 -1.47052067e-01
 -1.25760523e-01 -1.49459456e-03  2.84273381e-02  4.86578585e-02
  1.06400278e-01  1.25322059e-01  1.42256798e-01  1.50583436e-01
  1.66612367e-01  1.84842199e-01  2.06045295e-01  2.44499096e-01
  2.56958686e-01  2.73591710e-01  2.83591613e-01  2.95271030e-01
  3.08486306e-01  3.18121138e-01  3.22217844e-01  3.47631510e-01
  3.54126502e-01  3.57493523e-01  3.80373811e-01  3.82108359e-01
  3.95652003e-01  4.06278020e-01  4.19715168e-01  4.35465041e-01
  4.58056937e-01  4.70405700e-01  4.96212728e-01  5.03491301e-01
  5.47296621e-01  5.64715256e-01  5.72066770e-01  5.83439616e-01
  5.91944407e-01  6.22305029e-01  6.43690206e-01  6.49148200e-01
  6.61000216e-01  6.76020813e-01  7.05714336e-01  7.46950982e-01
  7.58804411e-01  8.20073620e-01  8.32615393e-01  8.55978872e-01
  9.14287383e-01  1.03858955e+00  1.10286006e+00  1.38696829e+00]
nelec by numeric integration = 146.0000058670267
    CPU time for vxc     37.78 sec, wall time     15.84 sec
E1 = -4101.163865524454  Ecoul = 1895.5590631429563  Exc = -124.67607066783533
cycle= 6 E= -835.442680863062  delta_E= -0.000254  |g|= 0.00742  |ddm|= 0.0473
    CPU time for cycle= 6     38.25 sec, wall time     15.91 sec
  HOMO = -0.125305798835248  LUMO = -0.000994680888315404
  mo_energy =
[-1.00447203e+01 -1.00326249e+01 -1.00322805e+01 -1.00240707e+01
 -1.00230442e+01 -1.00227066e+01 -1.00211874e+01 -1.00209836e+01
 -1.00207054e+01 -1.00198860e+01 -1.00188152e+01 -1.00185943e+01
 -1.00155871e+01 -1.00145311e+01 -1.00137803e+01 -1.00103064e+01
 -1.00101455e+01 -1.00047507e+01 -1.00032137e+01 -1.00027501e+01
 -1.00015353e+01 -1.00007026e+01 -8.58822367e-01 -8.42311792e-01
 -8.17947903e-01 -7.99892354e-01 -7.70327738e-01 -7.61455721e-01
 -7.57096739e-01 -7.20207349e-01 -6.93377772e-01 -6.67452247e-01
 -6.55285094e-01 -6.05454250e-01 -5.98110195e-01 -5.79767070e-01
 -5.54936107e-01 -5.46143504e-01 -5.19697741e-01 -5.12103022e-01
 -4.77339565e-01 -4.73214050e-01 -4.64756891e-01 -4.58226546e-01
 -4.45344386e-01 -4.30191604e-01 -4.28292121e-01 -4.13857549e-01
 -4.02862511e-01 -3.93001294e-01 -3.88760869e-01 -3.74973845e-01
 -3.71725893e-01 -3.61607206e-01 -3.49051964e-01 -3.43083909e-01
 -3.35348707e-01 -3.23340782e-01 -3.18370614e-01 -3.06087959e-01
 -2.97948119e-01 -2.96174712e-01 -2.92580228e-01 -2.71797342e-01
 -2.64077101e-01 -2.56460831e-01 -2.53226537e-01 -2.36905287e-01
 -2.09677964e-01 -1.77966819e-01 -1.70565110e-01 -1.46770107e-01
 -1.25305799e-01 -9.94680888e-04  2.87494130e-02  4.91457686e-02
  1.06756154e-01  1.25028982e-01  1.42642735e-01  1.51101910e-01
  1.66491295e-01  1.84823664e-01  2.06133511e-01  2.44661608e-01
  2.57059466e-01  2.73938393e-01  2.83821164e-01  2.95648690e-01
  3.08646401e-01  3.18037137e-01  3.22327309e-01  3.47473709e-01
  3.54067421e-01  3.58028793e-01  3.80734861e-01  3.82251022e-01
  3.95625197e-01  4.06429780e-01  4.19967149e-01  4.35366606e-01
  4.58469504e-01  4.70982334e-01  4.96768764e-01  5.03935172e-01
  5.47699483e-01  5.64978422e-01  5.72263066e-01  5.83882547e-01
  5.92022896e-01  6.22754166e-01  6.44062705e-01  6.49487600e-01
  6.61324614e-01  6.76601316e-01  7.06471823e-01  7.47018266e-01
  7.59002619e-01  8.20826413e-01  8.33053733e-01  8.56273196e-01
  9.14859165e-01  1.03832100e+00  1.10256434e+00  1.38632612e+00]
nelec by numeric integration = 146.00000586622002
    CPU time for vxc     38.20 sec, wall time     15.88 sec
E1 = -4101.14887373714  Ecoul = 1895.5437455117728  Exc = -124.67576431051162
cycle= 7 E= -835.442700349607  delta_E= -1.95e-05  |g|= 0.00176  |ddm|= 0.013
    CPU time for cycle= 7     38.62 sec, wall time     15.94 sec
  HOMO = -0.125287654930062  LUMO = -0.000969367486120793
  mo_energy =
[-1.00449058e+01 -1.00328023e+01 -1.00321333e+01 -1.00239634e+01
 -1.00231242e+01 -1.00226203e+01 -1.00211202e+01 -1.00210978e+01
 -1.00210289e+01 -1.00198657e+01 -1.00185932e+01 -1.00182978e+01
 -1.00152822e+01 -1.00145582e+01 -1.00138424e+01 -1.00103554e+01
 -1.00102749e+01 -1.00042051e+01 -1.00032450e+01 -1.00027108e+01
 -1.00015570e+01 -1.00007933e+01 -8.58881628e-01 -8.42258410e-01
 -8.17914376e-01 -7.99851577e-01 -7.70357032e-01 -7.61503571e-01
 -7.57061430e-01 -7.20139386e-01 -6.93323843e-01 -6.67408089e-01
 -6.55274597e-01 -6.05454251e-01 -5.98060242e-01 -5.79743384e-01
 -5.54923129e-01 -5.46088652e-01 -5.19680369e-01 -5.12134781e-01
 -4.77343640e-01 -4.73214362e-01 -4.64742213e-01 -4.58236937e-01
 -4.45367321e-01 -4.30151089e-01 -4.28249828e-01 -4.13827731e-01
 -4.02862214e-01 -3.93001082e-01 -3.88762084e-01 -3.74950758e-01
 -3.71681325e-01 -3.61575347e-01 -3.49029177e-01 -3.43045410e-01
 -3.35336927e-01 -3.23327949e-01 -3.18364027e-01 -3.06110789e-01
 -2.97914856e-01 -2.96164191e-01 -2.92602634e-01 -2.71803800e-01
 -2.64034004e-01 -2.56399000e-01 -2.53226775e-01 -2.36854614e-01
 -2.09622867e-01 -1.77933557e-01 -1.70546480e-01 -1.46731844e-01
 -1.25287655e-01 -9.69367486e-04  2.88071570e-02  4.92058437e-02
  1.06807579e-01  1.25020074e-01  1.42646900e-01  1.51134914e-01
  1.66469806e-01  1.84806109e-01  2.06166951e-01  2.44717055e-01
  2.57127673e-01  2.74000918e-01  2.83860551e-01  2.95707284e-01
  3.08613570e-01  3.18016976e-01  3.22313912e-01  3.47455219e-01
  3.54208749e-01  3.58033585e-01  3.80698858e-01  3.82319171e-01
  3.95592146e-01  4.06382443e-01  4.19982248e-01  4.35331264e-01
  4.58556718e-01  4.71039366e-01  4.96819287e-01  5.03935251e-01
  5.47657709e-01  5.65035569e-01  5.72349285e-01  5.83901726e-01
  5.91984471e-01  6.22766344e-01  6.44074684e-01  6.49547059e-01
  6.61357887e-01  6.76607280e-01  7.06431666e-01  7.46979372e-01
  7.59109082e-01  8.20844717e-01  8.33133600e-01  8.56298667e-01
  9.14940254e-01  1.03826293e+00  1.10260743e+00  1.38619954e+00]
nelec by numeric integration = 146.00000586583818
    CPU time for vxc     37.99 sec, wall time     15.79 sec
E1 = -4101.145872630695  Ecoul = 1895.5407676595387  Exc = -124.67578858862822
cycle= 8 E= -835.442701373512  delta_E= -1.02e-06  |g|= 0.000526  |ddm|= 0.00314
    CPU time for cycle= 8     38.43 sec, wall time     15.86 sec
  HOMO = -0.125308552118442  LUMO = -0.000982785591144767
  mo_energy =
[-1.00448910e+01 -1.00327886e+01 -1.00322279e+01 -1.00239353e+01
 -1.00231535e+01 -1.00227194e+01 -1.00211325e+01 -1.00210308e+01
 -1.00209654e+01 -1.00198760e+01 -1.00185764e+01 -1.00184190e+01
 -1.00152623e+01 -1.00145218e+01 -1.00138410e+01 -1.00103548e+01
 -1.00102788e+01 -1.00043813e+01 -1.00031637e+01 -1.00026872e+01
 -1.00016040e+01 -1.00008340e+01 -8.58867294e-01 -8.42299565e-01
 -8.17911831e-01 -7.99859210e-01 -7.70359476e-01 -7.61494424e-01
 -7.57083650e-01 -7.20153331e-01 -6.93356678e-01 -6.67423544e-01
 -6.55279165e-01 -6.05463127e-01 -5.98098578e-01 -5.79760054e-01
 -5.54935787e-01 -5.46108477e-01 -5.19684056e-01 -5.12124172e-01
 -4.77338535e-01 -4.73209310e-01 -4.64751739e-01 -4.58239310e-01
 -4.45366660e-01 -4.30181914e-01 -4.28281730e-01 -4.13838645e-01
 -4.02873950e-01 -3.93007036e-01 -3.88757755e-01 -3.74971506e-01
 -3.71704041e-01 -3.61594850e-01 -3.49040249e-01 -3.43067367e-01
 -3.35332758e-01 -3.23327007e-01 -3.18369127e-01 -3.06108075e-01
 -2.97922855e-01 -2.96164559e-01 -2.92577690e-01 -2.71799219e-01
 -2.64043128e-01 -2.56435220e-01 -2.53226926e-01 -2.36886165e-01
 -2.09633765e-01 -1.77949031e-01 -1.70549400e-01 -1.46747833e-01
 -1.25308552e-01 -9.82785591e-04  2.87935863e-02  4.91742222e-02
  1.06793146e-01  1.25040840e-01  1.42630414e-01  1.51129481e-01
  1.66503625e-01  1.84834521e-01  2.06153809e-01  2.44692570e-01
  2.57104544e-01  2.73986235e-01  2.83846791e-01  2.95678587e-01
  3.08617877e-01  3.18026718e-01  3.22319655e-01  3.47482860e-01
  3.54148874e-01  3.58021594e-01  3.80706510e-01  3.82283229e-01
  3.95605813e-01  4.06395959e-01  4.19968158e-01  4.35349148e-01
  4.58522398e-01  4.70997999e-01  4.96776935e-01  5.03906915e-01
  5.47641389e-01  5.65012392e-01  5.72319562e-01  5.83901016e-01
  5.91979418e-01  6.22767391e-01  6.44057591e-01  6.49536394e-01
  6.61350150e-01  6.76576494e-01  7.06402564e-01  7.46994439e-01
  7.59111705e-01  8.20799930e-01  8.33098220e-01  8.56311181e-01
  9.14899186e-01  1.03830648e+00  1.10261664e+00  1.38621523e+00]
nelec by numeric integration = 146.00000586588635
    CPU time for vxc     38.32 sec, wall time     16.00 sec
E1 = -4101.14747621113  Ecoul = 1895.5423792373433  Exc = -124.67579667173797
cycle= 9 E= -835.442701459253  delta_E= -8.57e-08  |g|= 0.000259  |ddm|= 0.00104
    CPU time for cycle= 9     38.86 sec, wall time     16.09 sec
  HOMO = -0.125315333924798  LUMO = -0.000983850632925377
  mo_energy =
[-1.00448716e+01 -1.00327705e+01 -1.00322020e+01 -1.00239592e+01
 -1.00231545e+01 -1.00227029e+01 -1.00211487e+01 -1.00210166e+01
 -1.00209720e+01 -1.00198873e+01 -1.00186347e+01 -1.00183948e+01
 -1.00153155e+01 -1.00145257e+01 -1.00138375e+01 -1.00103670e+01
 -1.00103008e+01 -1.00043521e+01 -1.00031986e+01 -1.00027090e+01
 -1.00016097e+01 -1.00008150e+01 -8.58865429e-01 -8.42296174e-01
 -8.17926835e-01 -7.99866773e-01 -7.70359757e-01 -7.61495026e-01
 -7.57085637e-01 -7.20161371e-01 -6.93359762e-01 -6.67426197e-01
 -6.55284698e-01 -6.05468516e-01 -5.98098478e-01 -5.79764898e-01
 -5.54942830e-01 -5.46115777e-01 -5.19688818e-01 -5.12125777e-01
 -4.77343892e-01 -4.73209109e-01 -4.64756803e-01 -4.58240999e-01
 -4.45364911e-01 -4.30181328e-01 -4.28279237e-01 -4.13847059e-01
 -4.02880735e-01 -3.93009382e-01 -3.88757147e-01 -3.74972682e-01
 -3.71705551e-01 -3.61594461e-01 -3.49037798e-01 -3.43068262e-01
 -3.35341873e-01 -3.23334789e-01 -3.18370838e-01 -3.06113427e-01
 -2.97928648e-01 -2.96165853e-01 -2.92573851e-01 -2.71798067e-01
 -2.64050745e-01 -2.56433951e-01 -2.53234373e-01 -2.36885522e-01
 -2.09643581e-01 -1.77951240e-01 -1.70551895e-01 -1.46753310e-01
 -1.25315334e-01 -9.83850633e-04  2.87907574e-02  4.91719288e-02
  1.06787335e-01  1.25041354e-01  1.42626697e-01  1.51120806e-01
  1.66510123e-01  1.84838787e-01  2.06152122e-01  2.44693128e-01
  2.57101774e-01  2.73977201e-01  2.83841569e-01  2.95677133e-01
  3.08610962e-01  3.18025845e-01  3.22317003e-01  3.47484540e-01
  3.54159405e-01  3.58016321e-01  3.80698093e-01  3.82285987e-01
  3.95606317e-01  4.06388435e-01  4.19964478e-01  4.35353785e-01
  4.58518767e-01  4.70998918e-01  4.96776420e-01  5.03905511e-01
  5.47636195e-01  5.65005847e-01  5.72316072e-01  5.83889997e-01
  5.91979533e-01  6.22756506e-01  6.44051113e-01  6.49526285e-01
  6.61340358e-01  6.76576107e-01  7.06396011e-01  7.46994332e-01
  7.59088851e-01  8.20799929e-01  8.33099502e-01  8.56292658e-01
  9.14901271e-01  1.03831171e+00  1.10260407e+00  1.38622716e+00]
nelec by numeric integration = 146.00000586590917
    CPU time for vxc     39.22 sec, wall time     16.51 sec
E1 = -4101.147762187816  Ecoul = 1895.5426734757402  Exc = -124.67580495514751
cycle= 10 E= -835.442701480951  delta_E= -2.17e-08  |g|= 5.45e-05  |ddm|= 0.000394
    CPU time for cycle= 10     39.71 sec, wall time     16.60 sec
  HOMO = -0.125314121611906  LUMO = -0.000981304590727109
  mo_energy =
[-1.00448710e+01 -1.00327695e+01 -1.00322029e+01 -1.00239546e+01
 -1.00231471e+01 -1.00226988e+01 -1.00211419e+01 -1.00210284e+01
 -1.00209798e+01 -1.00198781e+01 -1.00186194e+01 -1.00183956e+01
 -1.00153090e+01 -1.00145329e+01 -1.00138443e+01 -1.00103567e+01
 -1.00102916e+01 -1.00043548e+01 -1.00032040e+01 -1.00027214e+01
 -1.00016035e+01 -1.00008250e+01 -8.58865296e-01 -8.42294134e-01
 -8.17925377e-01 -7.99863717e-01 -7.70358358e-01 -7.61495513e-01
 -7.57087036e-01 -7.20161447e-01 -6.93357278e-01 -6.67425578e-01
 -6.55283362e-01 -6.05467316e-01 -5.98095327e-01 -5.79764405e-01
 -5.54941124e-01 -5.46113833e-01 -5.19688266e-01 -5.12125161e-01
 -4.77343872e-01 -4.73208710e-01 -4.64755995e-01 -4.58240273e-01
 -4.45364560e-01 -4.30180219e-01 -4.28278192e-01 -4.13845301e-01
 -4.02878268e-01 -3.93009789e-01 -3.88757783e-01 -3.74969737e-01
 -3.71703105e-01 -3.61592352e-01 -3.49038188e-01 -3.43068488e-01
 -3.35342394e-01 -3.23334198e-01 -3.18368982e-01 -3.06112466e-01
 -2.97927103e-01 -2.96165578e-01 -2.92576823e-01 -2.71798514e-01
 -2.64051668e-01 -2.56431606e-01 -2.53235884e-01 -2.36884715e-01
 -2.09644010e-01 -1.77949614e-01 -1.70550608e-01 -1.46752944e-01
 -1.25314122e-01 -9.81304591e-04  2.87914343e-02  4.91741122e-02
  1.06787198e-01  1.25041443e-01  1.42629519e-01  1.51118675e-01
  1.66505703e-01  1.84835415e-01  2.06153600e-01  2.44694341e-01
  2.57103532e-01  2.73979230e-01  2.83843152e-01  2.95677991e-01
  3.08611444e-01  3.18027547e-01  3.22319068e-01  3.47481941e-01
  3.54160818e-01  3.58015642e-01  3.80696778e-01  3.82289406e-01
  3.95606460e-01  4.06387630e-01  4.19965790e-01  4.35352959e-01
  4.58520212e-01  4.70998761e-01  4.96778108e-01  5.03908906e-01
  5.47641030e-01  5.65008958e-01  5.72318684e-01  5.83888865e-01
  5.91982031e-01  6.22755322e-01  6.44054347e-01  6.49526475e-01
  6.61341614e-01  6.76577562e-01  7.06401862e-01  7.46993679e-01
  7.59091142e-01  8.20804495e-01  8.33097347e-01  8.56292711e-01
  9.14899544e-01  1.03830488e+00  1.10260991e+00  1.38622755e+00]
nelec by numeric integration = 146.000005865908
    CPU time for vxc     39.54 sec, wall time     16.70 sec
E1 = -4101.147594441076  Ecoul = 1895.5425072339274  Exc = -124.67580646112101
cycle= 11 E= -835.442701481998  delta_E= -1.05e-09  |g|= 1.97e-05  |ddm|= 0.000109
    CPU time for cycle= 11     40.10 sec, wall time     16.79 sec
  HOMO = -0.125313981079879  LUMO = -0.000980820050473049
  mo_energy =
[-1.00448722e+01 -1.00327708e+01 -1.00322023e+01 -1.00239553e+01
 -1.00231496e+01 -1.00226984e+01 -1.00211446e+01 -1.00210286e+01
 -1.00209764e+01 -1.00198804e+01 -1.00186207e+01 -1.00183930e+01
 -1.00153089e+01 -1.00145288e+01 -1.00138414e+01 -1.00103594e+01
 -1.00102935e+01 -1.00043542e+01 -1.00032005e+01 -1.00027137e+01
 -1.00016026e+01 -1.00008222e+01 -8.58865522e-01 -8.42293966e-01
 -8.17924728e-01 -7.99863930e-01 -7.70358636e-01 -7.61495252e-01
 -7.57085305e-01 -7.20160350e-01 -6.93356898e-01 -6.67425098e-01
 -6.55283097e-01 -6.05467040e-01 -5.98095364e-01 -5.79763659e-01
 -5.54940591e-01 -5.46113526e-01 -5.19687857e-01 -5.12125063e-01
 -4.77343397e-01 -4.73209077e-01 -4.64755365e-01 -4.58240023e-01
 -4.45364222e-01 -4.30179727e-01 -4.28277615e-01 -4.13844786e-01
 -4.02878111e-01 -3.93008951e-01 -3.88757522e-01 -3.74970107e-01
 -3.71703233e-01 -3.61592686e-01 -3.49037758e-01 -3.43067426e-01
 -3.35341454e-01 -3.23333724e-01 -3.18369461e-01 -3.06112197e-01
 -2.97926879e-01 -2.96165675e-01 -2.92577111e-01 -2.71798795e-01
 -2.64050450e-01 -2.56431696e-01 -2.53234420e-01 -2.36884216e-01
 -2.09642861e-01 -1.77949707e-01 -1.70550860e-01 -1.46752669e-01
 -1.25313981e-01 -9.80820050e-04  2.87921245e-02  4.91744379e-02
  1.06788409e-01  1.25041051e-01  1.42629183e-01  1.51120780e-01
  1.66505014e-01  1.84834942e-01  2.06153819e-01  2.44694465e-01
  2.57103886e-01  2.73979807e-01  2.83843819e-01  2.95678720e-01
  3.08612151e-01  3.18026993e-01  3.22318837e-01  3.47482027e-01
  3.54160919e-01  3.58016779e-01  3.80698023e-01  3.82288739e-01
  3.95606171e-01  4.06388545e-01  4.19966168e-01  4.35352300e-01
  4.58520893e-01  4.71000115e-01  4.96778782e-01  5.03908823e-01
  5.47640413e-01  5.65008878e-01  5.72318583e-01  5.83890633e-01
  5.91981517e-01  6.22756887e-01  6.44054327e-01  6.49527470e-01
  6.61342156e-01  6.76578155e-01  7.06401090e-01  7.46993306e-01
  7.59091802e-01  8.20804144e-01  8.33099626e-01  8.56294055e-01
  9.14901681e-01  1.03830589e+00  1.10260863e+00  1.38622685e+00]
nelec by numeric integration = 146.00000586590548
    CPU time for vxc     37.63 sec, wall time     15.66 sec
E1 = -4101.147594162658  Ecoul = 1895.5425057515579  Exc = -124.6758052573028
cycle= 12 E= -835.442701482131  delta_E= -1.33e-10  |g|= 7.74e-06  |ddm|= 3.92e-05
    CPU time for cycle= 12     38.16 sec, wall time     15.74 sec
  HOMO = -0.125314027205412  LUMO = -0.000980767318507993
  mo_energy =
[-1.00448729e+01 -1.00327715e+01 -1.00322023e+01 -1.00239555e+01
 -1.00231487e+01 -1.00226995e+01 -1.00211426e+01 -1.00210274e+01
 -1.00209761e+01 -1.00198805e+01 -1.00186211e+01 -1.00183942e+01
 -1.00153083e+01 -1.00145303e+01 -1.00138408e+01 -1.00103593e+01
 -1.00102929e+01 -1.00043527e+01 -1.00031998e+01 -1.00027150e+01
 -1.00016030e+01 -1.00008214e+01 -8.58865751e-01 -8.42293962e-01
 -8.17924551e-01 -7.99863954e-01 -7.70358613e-01 -7.61495300e-01
 -7.57085368e-01 -7.20160101e-01 -6.93356881e-01 -6.67424867e-01
 -6.55283011e-01 -6.05466979e-01 -5.98095254e-01 -5.79763575e-01
 -5.54940587e-01 -5.46113348e-01 -5.19687902e-01 -5.12125296e-01
 -4.77343390e-01 -4.73209111e-01 -4.64755368e-01 -4.58240067e-01
 -4.45364526e-01 -4.30179703e-01 -4.28277731e-01 -4.13844636e-01
 -4.02878036e-01 -3.93008989e-01 -3.88757629e-01 -3.74970081e-01
 -3.71703137e-01 -3.61592592e-01 -3.49037892e-01 -3.43067513e-01
 -3.35341270e-01 -3.23333610e-01 -3.18369296e-01 -3.06112145e-01
 -2.97926861e-01 -2.96165573e-01 -2.92577037e-01 -2.71798708e-01
 -2.64050400e-01 -2.56431522e-01 -2.53234434e-01 -2.36884172e-01
 -2.09642659e-01 -1.77949668e-01 -1.70550903e-01 -1.46752502e-01
 -1.25314027e-01 -9.80767319e-04  2.87924042e-02  4.91745492e-02
  1.06788546e-01  1.25040854e-01  1.42629396e-01  1.51120796e-01
  1.66505240e-01  1.84835124e-01  2.06153701e-01  2.44694538e-01
  2.57103848e-01  2.73979749e-01  2.83843627e-01  2.95678664e-01
  3.08612210e-01  3.18026876e-01  3.22318721e-01  3.47481868e-01
  3.54160859e-01  3.58016864e-01  3.80698274e-01  3.82288957e-01
  3.95606042e-01  4.06388747e-01  4.19966359e-01  4.35352268e-01
  4.58520822e-01  4.70999906e-01  4.96778874e-01  5.03908847e-01
  5.47640526e-01  5.65009122e-01  5.72318758e-01  5.83890693e-01
  5.91981469e-01  6.22757087e-01  6.44054414e-01  6.49527640e-01
  6.61342313e-01  6.76578217e-01  7.06401439e-01  7.46993399e-01
  7.59092023e-01  8.20804244e-01  8.33099404e-01  8.56294309e-01
  9.14901440e-01  1.03830582e+00  1.10260849e+00  1.38622624e+00]
nelec by numeric integration = 146.00000586590733
    CPU time for vxc     39.48 sec, wall time     16.33 sec
E1 = -4101.14758333071  Ecoul = 1895.5424951778552  Exc = -124.67580551555935
cycle= 13 E= -835.442701482143  delta_E= -1.23e-11  |g|= 5.02e-06  |ddm|= 1.54e-05
    CPU time for cycle= 13     39.89 sec, wall time     16.40 sec
  HOMO = -0.125314303493178  LUMO = -0.000981034797145269
  mo_energy =
[-1.00448720e+01 -1.00327706e+01 -1.00322023e+01 -1.00239555e+01
 -1.00231503e+01 -1.00226983e+01 -1.00211452e+01 -1.00210273e+01
 -1.00209766e+01 -1.00198806e+01 -1.00186203e+01 -1.00183933e+01
 -1.00153083e+01 -1.00145286e+01 -1.00138416e+01 -1.00103577e+01
 -1.00102944e+01 -1.00043540e+01 -1.00032009e+01 -1.00027147e+01
 -1.00016056e+01 -1.00008218e+01 -8.58865262e-01 -8.42294192e-01
 -8.17924817e-01 -7.99864022e-01 -7.70358791e-01 -7.61495219e-01
 -7.57085569e-01 -7.20160382e-01 -6.93357209e-01 -6.67425222e-01
 -6.55283158e-01 -6.05467167e-01 -5.98095750e-01 -5.79763834e-01
 -5.54940929e-01 -5.46113722e-01 -5.19687868e-01 -5.12125087e-01
 -4.77343455e-01 -4.73208925e-01 -4.64755579e-01 -4.58240121e-01
 -4.45364292e-01 -4.30179915e-01 -4.28277852e-01 -4.13845065e-01
 -4.02878406e-01 -3.93009056e-01 -3.88757402e-01 -3.74970275e-01
 -3.71703445e-01 -3.61592818e-01 -3.49037690e-01 -3.43067671e-01
 -3.35341517e-01 -3.23333796e-01 -3.18369500e-01 -3.06112374e-01
 -2.97926975e-01 -2.96165662e-01 -2.92576584e-01 -2.71798663e-01
 -2.64050482e-01 -2.56432000e-01 -2.53234579e-01 -2.36884459e-01
 -2.09642935e-01 -1.77949782e-01 -1.70550904e-01 -1.46752824e-01
 -1.25314303e-01 -9.81034797e-04  2.87920145e-02  4.91742296e-02
  1.06788246e-01  1.25041207e-01  1.42628823e-01  1.51120631e-01
  1.66505748e-01  1.84835498e-01  2.06153753e-01  2.44694319e-01
  2.57103797e-01  2.73979721e-01  2.83843641e-01  2.95678560e-01
  3.08612000e-01  3.18027002e-01  3.22318833e-01  3.47482513e-01
  3.54160736e-01  3.58016593e-01  3.80697869e-01  3.82288444e-01
  3.95606414e-01  4.06388333e-01  4.19965897e-01  4.35352657e-01
  4.58520629e-01  4.70999794e-01  4.96778401e-01  5.03908187e-01
  5.47639797e-01  5.65008580e-01  5.72318500e-01  5.83890435e-01
  5.91981277e-01  6.22756787e-01  6.44054022e-01  6.49527424e-01
  6.61342042e-01  6.76577778e-01  7.06400210e-01  7.46993945e-01
  7.59091936e-01  8.20803636e-01  8.33099345e-01  8.56294119e-01
  9.14901450e-01  1.03830663e+00  1.10260847e+00  1.38622702e+00]
nelec by numeric integration = 146.0000058659074
    CPU time for vxc     37.77 sec, wall time     15.76 sec
E1 = -4101.14760601273  Ecoul = 1895.5425179127437  Exc = -124.67580556837889
Extra cycle  E= -835.442701482093  delta_E= 4.96e-11  |g|= 1.3e-05  |ddm|= 2.59e-05
    CPU time for scf_cycle    590.78 sec, wall time    242.93 sec
    CPU time for SCF    590.78 sec, wall time    242.93 sec
converged SCF energy = -835.442701482093
nelec by numeric integration = 146.0000058659074
    CPU time for vxc     38.04 sec, wall time     15.80 sec
 ** Mulliken pop  **
pop of  0 C 1s            1.99089
pop of  0 C 2s            1.14472
pop of  0 C 2px           1.00670
pop of  0 C 2py           0.94546
pop of  0 C 2pz           0.90966
pop of  1 C 1s            1.99108
pop of  1 C 2s            1.15659
pop of  1 C 2px           0.96322
pop of  1 C 2py           0.95895
pop of  1 C 2pz           0.94001
pop of  2 C 1s            1.99047
pop of  2 C 2s            1.07895
pop of  2 C 2px           1.02448
pop of  2 C 2py           0.99084
pop of  2 C 2pz           1.04900
pop of  3 C 1s            1.99132
pop of  3 C 2s            1.21584
pop of  3 C 2px           0.97324
pop of  3 C 2py           0.92225
pop of  3 C 2pz           0.95109
pop of  4 C 1s            1.99087
pop of  4 C 2s            1.15428
pop of  4 C 2px           1.01010
pop of  4 C 2py           0.94574
pop of  4 C 2pz           0.99681
pop of  5 C 1s            1.99109
pop of  5 C 2s            1.13735
pop of  5 C 2px           1.01553
pop of  5 C 2py           0.94886
pop of  5 C 2pz           1.00241
pop of  6 C 1s            1.99102
pop of  6 C 2s            1.18080
pop of  6 C 2px           0.98015
pop of  6 C 2py           0.97115
pop of  6 C 2pz           0.93733
pop of  7 C 1s            1.99097
pop of  7 C 2s            1.14554
pop of  7 C 2px           0.99273
pop of  7 C 2py           0.98847
pop of  7 C 2pz           0.93871
pop of  8 C 1s            1.99071
pop of  8 C 2s            1.07924
pop of  8 C 2px           1.01817
pop of  8 C 2py           0.95632
pop of  8 C 2pz           0.98312
pop of  9 C 1s            1.99095
pop of  9 C 2s            1.15063
pop of  9 C 2px           0.97605
pop of  9 C 2py           0.93177
pop of  9 C 2pz           0.94137
pop of  10 C 1s           1.99118
pop of  10 C 2s           1.17324
pop of  10 C 2px          0.97809
pop of  10 C 2py          0.94448
pop of  10 C 2pz          0.96433
pop of  11 C 1s           1.99084
pop of  11 C 2s           1.14283
pop of  11 C 2px          1.00978
pop of  11 C 2py          0.95351
pop of  11 C 2pz          1.00626
pop of  12 C 1s           1.99108
pop of  12 C 2s           1.18461
pop of  12 C 2px          0.96021
pop of  12 C 2py          0.90838
pop of  12 C 2pz          0.91914
pop of  13 C 1s           1.99045
pop of  13 C 2s           1.11565
pop of  13 C 2px          0.99547
pop of  13 C 2py          0.97139
pop of  13 C 2pz          0.95015
pop of  14 C 1s           1.99110
pop of  14 C 2s           1.06985
pop of  14 C 2px          1.04023
pop of  14 C 2py          1.01237
pop of  14 C 2pz          1.02127
pop of  15 C 1s           1.99143
pop of  15 C 2s           1.22567
pop of  15 C 2px          0.93696
pop of  15 C 2py          0.93748
pop of  15 C 2pz          0.98576
pop of  16 C 1s           1.99207
pop of  16 C 2s           1.10821
pop of  16 C 2px          0.97493
pop of  16 C 2py          0.98194
pop of  16 C 2pz          0.94216
pop of  17 C 1s           1.99146
pop of  17 C 2s           1.21142
pop of  17 C 2px          0.97377
pop of  17 C 2py          0.90072
pop of  17 C 2pz          0.90200
pop of  18 C 1s           1.99325
pop of  18 C 2s           1.05371
pop of  18 C 2px          0.99949
pop of  18 C 2py          0.98232
pop of  18 C 2pz          1.04410
pop of  19 C 1s           1.99155
pop of  19 C 2s           1.08454
pop of  19 C 2px          0.98869
pop of  19 C 2py          1.01948
pop of  19 C 2pz          0.98280
pop of  20 C 1s           1.99263
pop of  20 C 2s           1.05607
pop of  20 C 2px          1.00493
pop of  20 C 2py          1.04362
pop of  20 C 2pz          1.00925
pop of  21 C 1s           1.99149
pop of  21 C 2s           1.13490
pop of  21 C 2px          1.00923
pop of  21 C 2py          1.00270
pop of  21 C 2pz          0.91630
pop of  22 H 1s           0.89244
pop of  23 H 1s           0.92970
pop of  24 H 1s           0.90467
pop of  25 H 1s           0.90829
pop of  26 H 1s           0.93625
pop of  27 H 1s           0.91809
pop of  28 H 1s           0.91341
pop of  29 H 1s           0.89959
pop of  30 H 1s           0.91287
pop of  31 H 1s           0.91093
pop of  32 H 1s           0.90867
pop of  33 H 1s           0.95862
pop of  34 H 1s           0.91784
pop of  35 H 1s           0.93269
 ** Mulliken atomic charges  **
charge of    0C =      0.00258
charge of    1C =     -0.00984
charge of    2C =     -0.13375
charge of    3C =     -0.05374
charge of    4C =     -0.09780
charge of    5C =     -0.09525
charge of    6C =     -0.06044
charge of    7C =     -0.05641
charge of    8C =     -0.02756
charge of    9C =      0.00924
charge of   10C =     -0.05132
charge of   11C =     -0.10322
charge of   12C =      0.03657
charge of   13C =     -0.02312
charge of   14C =     -0.13481
charge of   15C =     -0.07730
charge of   16C =      0.00068
charge of   17C =      0.02062
charge of   18C =     -0.07286
charge of   19C =     -0.06707
charge of   20C =     -0.10651
charge of   21C =     -0.05462
charge of   22H =      0.10756
charge of   23H =      0.07030
charge of   24H =      0.09533
charge of   25H =      0.09171
charge of   26H =      0.06375
charge of   27H =      0.08191
charge of   28H =      0.08659
charge of   29H =      0.10041
charge of   30H =      0.08713
charge of   31H =      0.08907
charge of   32H =      0.09133
charge of   33H =      0.04138
charge of   34H =      0.08216
charge of   35H =      0.06731
Dipole moment(X, Y, Z, Debye): -0.06536,  0.59772,  0.29755
nelec by numeric integration = 146.0000058659074
    CPU time for vxc     38.42 sec, wall time     15.88 sec
E1 = -4101.14760601273  Ecoul = 1895.5425179127442  Exc = -124.6758055683789
nelec by numeric integration = 146.0000058659074
    CPU time for vxc     37.78 sec, wall time     15.72 sec
E1 = -4101.14760601273  Ecoul = 1895.5425179127444  Exc = -124.67580556837889
