System: uname_result(system='Linux', node='cosmopc18', release='5.15.0-97-generic', version='#107-Ubuntu SMP Wed Feb 7 13:26:48 UTC 2024', machine='x86_64')  Threads 4
Python 3.11.8 (main, Feb 26 2024, 21:39:34) [GCC 11.2.0]
numpy 1.26.4  scipy 1.11.4
Date: Tue Apr  9 15:11:56 2024
PySCF version 2.3.0
PySCF path  /home/saade/miniconda3/envs/tutorial/lib/python3.11/site-packages/pyscf

[ENV] PYSCFAD_BACKEND torch
[CONFIG] conf_file None
[INPUT] verbose = 5
[INPUT] max_memory = 4000 
[INPUT] num. atoms = 36
[INPUT] num. electrons = 146
[INPUT] charge = 0
[INPUT] spin (= nelec alpha-beta = 2S) = 0
[INPUT] symmetry False subgroup None
[INPUT] Mole.unit = angstrom
[INPUT] Symbol           X                Y                Z      unit          X                Y                Z       unit  Magmom
[INPUT]  1 C      0.134202000000   3.654540000000   0.577135000000 AA    0.253605025369   6.906079711268   1.090627086901 Bohr   0.0
[INPUT]  2 C      0.048527000000   3.704473000000  -0.536611000000 AA    0.091702739647   7.000439405846  -1.014047825429 Bohr   0.0
[INPUT]  3 C      0.124703000000   4.993460000000   1.454236000000 AA    0.235654516912   9.436271813971   2.748107760483 Bohr   0.0
[INPUT]  4 C      0.066111000000   2.638909000000   1.354497000000 AA    0.124931683821   4.986815277650   2.559628366545 Bohr   0.0
[INPUT]  5 C      0.205468000000   4.975006000000  -1.557543000000 AA    0.388278247362   9.401398808068  -2.943329697233 Bohr   0.0
[INPUT]  6 C      0.023459000000   2.441757000000  -1.325721000000 AA    0.044331085156   4.614251992740  -2.505249607585 Bohr   0.0
[INPUT]  7 C     -0.013878000000   5.932034000000  -0.895515000000 AA   -0.026225619157  11.209919621608  -1.692278090440 Bohr   0.0
[INPUT]  8 C      0.071328000000   6.242328000000   0.662622000000 AA    0.134790385013  11.796290299704   1.252174104112 Bohr   0.0
[INPUT]  9 C      0.037173000000   1.197747000000   0.588885000000 AA    0.070246789228   2.263413796519   1.112831368864 Bohr   0.0
[INPUT] 10 C      0.131325000000   1.197050000000  -0.659744000000 AA    0.248168283309   2.262096657411  -1.246735472325 Bohr   0.0
[INPUT] 11 C     -0.040269000000  -0.139862000000   1.338088000000 AA   -0.076097381310  -0.264300875234   2.528619850567 Bohr   0.0
[INPUT] 12 C     -0.235320000000   0.168812000000  -1.399511000000 AA   -0.444690351633   0.319008446540  -2.644692498316 Bohr   0.0
[INPUT] 13 C     -0.002057000000  -1.263823000000   0.759188000000 AA   -0.003887166638  -2.388279339926   1.434657397056 Bohr   0.0
[INPUT] 14 C      0.020885000000  -1.409795000000  -0.871509000000 AA    0.039466930112  -2.664126441781  -1.646913325094 Bohr   0.0
[INPUT] 15 C     -0.121996000000  -2.422866000000   1.478208000000 AA   -0.230539028292  -4.578553176520   2.793408275141 Bohr   0.0
[INPUT] 16 C     -0.008390000000  -2.701831000000  -1.667961000000 AA   -0.015854802185  -5.105720624860  -3.151989476456 Bohr   0.0
[INPUT] 17 C      0.108151000000  -3.545580000000   0.535037000000 AA    0.204375770098  -6.700175152735   1.011073396509 Bohr   0.0
[INPUT] 18 C      0.145613000000  -3.629212000000  -0.661798000000 AA    0.275168690176  -6.858216727985  -1.250616969785 Bohr   0.0
[INPUT] 19 C     -0.014468000000  -4.867221000000   1.512339000000 AA   -0.027340557570  -9.197714677732   2.857906517499 Bohr   0.0
[INPUT] 20 C      0.164593000000  -4.804745000000  -1.431854000000 AA    0.311035692021  -9.079652148373  -2.705811910363 Bohr   0.0
[INPUT] 21 C      0.004802000000  -6.069727000000   0.652238000000 AA    0.009074464850 -11.470121680878   1.232551188034 Bohr   0.0
[INPUT] 22 C     -0.089577000000  -6.261118000000  -0.524638000000 AA   -0.169275997060 -11.831798253585  -0.991422134540 Bohr   0.0
[INPUT] 23 H     -0.221140000000   4.949594000000   2.313974000000 AA   -0.417894035186   9.353377087790   4.372777119364 Bohr   0.0
[INPUT] 24 H     -0.104928000000   2.431457000000   2.373083000000 AA   -0.198285182798   4.594787813657   4.484476940861 Bohr   0.0
[INPUT] 25 H     -0.069766000000   4.973144000000  -2.619091000000 AA   -0.131838632806   9.397880138024  -4.949364685313 Bohr   0.0
[INPUT] 26 H      0.136699000000   2.414026000000  -2.616257000000 AA    0.258323671502   4.561847997579  -4.944009201476 Bohr   0.0
[INPUT] 27 H     -0.034271000000   7.111831000000  -1.182305000000 AA   -0.064762804015  13.439412834192  -2.234232645704 Bohr   0.0
[INPUT] 28 H      0.066003000000   6.896612000000   1.258889000000 AA    0.124727593400  13.032707867389   2.378955431228 Bohr   0.0
[INPUT] 29 H     -0.008053000000  -0.033245000000   2.605929000000 AA   -0.015217964481  -0.062823945011   4.924492110062 Bohr   0.0
[INPUT] 30 H      0.211653000000  -0.028081000000  -2.705834000000 AA    0.399966203443  -0.053065399304  -5.113285198536 Bohr   0.0
[INPUT] 31 H     -0.111239000000  -2.406131000000   2.635383000000 AA   -0.210211244370  -4.546928609826   4.980152103335 Bohr   0.0
[INPUT] 32 H      0.043087000000  -2.566497000000  -2.599528000000 AA    0.081422629529  -4.849976429518  -4.912395973138 Bohr   0.0
[INPUT] 33 H      0.162722000000  -4.906938000000   2.647795000000 AA    0.307500014441  -9.272768930221   5.003607383993 Bohr   0.0
[INPUT] 34 H      0.172218000000  -4.809070000000  -2.612934000000 AA    0.325444853720  -9.087825213862  -4.937729641564 Bohr   0.0
[INPUT] 35 H     -0.038714000000  -6.990692000000   1.344499000000 AA   -0.073158857186 -13.210493301188   2.540734884752 Bohr   0.0
[INPUT] 36 H     -0.081064000000  -7.055989000000  -1.309071000000 AA   -0.153188758562 -13.333886747944  -2.473785667611 Bohr   0.0
[INPUT] ---------------- BASIS SET ---------------- 
[INPUT] l, kappa, [nprim/nctr], expnt,             c_1 c_2 ...
[INPUT] H
[INPUT] 0    0    [3    /1   ]  3.42525091        0.15432897
                                0.62391373        0.53532814
                                0.1688554         0.44463454
[INPUT] C
[INPUT] 0    0    [3    /1   ]  71.616837         0.15432897
                                13.045096         0.53532814
                                3.5305122         0.44463454
[INPUT] 0    0    [3    /1   ]  2.9412494         -0.09996723
                                0.6834831         0.39951283
                                0.2222899         0.70011547
[INPUT] 1    0    [3    /1   ]  2.9412494         0.15591627
                                0.6834831         0.60768372
                                0.2222899         0.39195739

nuclear repulsion = 1488.27762286816
number of shells = 80
number of NR pGTOs = 372
number of NR cGTOs = 124
basis = sto3g
ecp = {}
CPU time:     48295.85
atom C rad-grids = 99, ang-grids = [ 50  50  50  50  50  50  50  50  50  50  50  50  50  50  50  50  50  50
  50  50  50  50  50  50  50  50  50  50  50  50  50  86  86  86  86  86
  86  86  86  86  86  86  86 434 434 434 434 434 434 434 434 434 590 590
 590 590 590 590 590 590 590 590 590 590 590 590 590 590 590 590 590 590
 590 590 590 590 590 590 590 434 434 434 434 434 434 434 434 434 434 434
 434 434 434 434 434 434 434 434 434]
atom H rad-grids = 99, ang-grids = [ 50  50  50  50  50  50  50  50  50  50  50  50  50  50  50  50  50  50
  50  50  50  50  50  50  50  50  50  50  86  86  86  86  86  86  86 434
 434 434 434 434 434 434 434 590 590 590 590 590 590 590 590 590 590 590
 590 590 590 590 590 590 590 590 590 590 590 590 590 590 590 434 434 434
 434 434 434 434 434 434 434 434 434 434 434 434 434 434 434 434 434 434
 434 434 434 434 434 434 434 434 434]
tot_boxes 5270, boxes in each direction [ 8 29 15]
Padding 0 grids
tot grids = 1157832


******** <class 'pyscf.dft.rks.RKS'> ********
method = RKS
initial guess = minao
damping factor = 0
level_shift factor = 0
DIIS = <class 'pyscf.scf.diis.CDIIS'>
diis_start_cycle = 1
diis_space = 8
SCF conv_tol = 1e-10
SCF conv_tol_grad = None
SCF max_cycles = 50
direct_scf = True
direct_scf_tol = 1e-13
chkfile to save SCF result = /home/saade/mlelec/tutorials/tmpvpkhh14y
max_memory 4000 MB (current use 690 MB)
XC library pyscf.dft.libxc version 6.1.0
    S. Lehtola, C. Steigemann, M. J.T. Oliveira, and M. A.L. Marques.,  SoftwareX 7, 1–5 (2018)
XC functionals = b3lypg
    P. J. Stephens, F. J. Devlin, C. F. Chabalowski, and M. J. Frisch.,  J. Phys. Chem. 98, 11623 (1994)
radial grids: 
    Treutler-Ahlrichs [JCP 102, 346 (1995); DOI:10.1063/1.469408] (M4) radial grids
    
becke partition: Becke, JCP 88, 2547 (1988); DOI:10.1063/1.454033
pruning grids: <function nwchem_prune at 0x7f9db5616ca0>
grids dens level: 3
symmetrized grids: False
atomic radii adjust function: <function treutler_atomic_radii_adjust at 0x7f9db5617380>
User specified grid scheme (99, 590)
small_rho_cutoff = 1e-07
Set gradient conv threshold to 1e-05
Initial guess from minao.
nelec by numeric integration = 145.26947650398847
    CPU time for vxc     36.97 sec, wall time     15.73 sec
E1 = -4076.58735430928  Ecoul = 1873.2387665893707  Exc = -125.84527262053852
init E= -840.916237472286
cond(S) = 28.45504745722136
    CPU time for initialize scf     47.03 sec, wall time     18.12 sec
  HOMO = -0.185240690099867  LUMO = -0.15452650922437
  mo_energy =
[-1.01703418e+01 -1.01453754e+01 -1.01447165e+01 -1.01425234e+01
 -1.01188016e+01 -1.01170838e+01 -1.01134585e+01 -1.01120702e+01
 -1.01082352e+01 -1.01061797e+01 -1.01043317e+01 -1.01031481e+01
 -1.01019271e+01 -1.00982172e+01 -1.00919052e+01 -1.00886277e+01
 -1.00850763e+01 -1.00823268e+01 -1.00803399e+01 -1.00657764e+01
 -1.00651535e+01 -1.00628231e+01 -1.11921912e+00 -1.08270029e+00
 -1.04094575e+00 -9.82791132e-01 -9.61312639e-01 -9.54774841e-01
 -8.94960436e-01 -8.75852427e-01 -8.53195628e-01 -8.13675325e-01
 -7.72723190e-01 -7.65475325e-01 -7.33499321e-01 -7.16220235e-01
 -7.02381318e-01 -6.57511845e-01 -6.43390675e-01 -6.16856668e-01
 -5.95292893e-01 -5.68926372e-01 -5.57870063e-01 -5.47711514e-01
 -5.31045050e-01 -5.25082882e-01 -5.15718825e-01 -5.06182862e-01
 -4.91531355e-01 -4.87586835e-01 -4.74915795e-01 -4.64914117e-01
 -4.60918912e-01 -4.46211984e-01 -4.39607457e-01 -4.31655557e-01
 -4.24193383e-01 -4.20009071e-01 -3.92909165e-01 -3.90021038e-01
 -3.79491482e-01 -3.65806491e-01 -3.63724502e-01 -3.60859129e-01
 -3.44242383e-01 -3.12334190e-01 -2.96019733e-01 -2.83157577e-01
 -2.78280384e-01 -2.64470611e-01 -2.59200979e-01 -2.25197340e-01
 -1.85240690e-01 -1.54526509e-01 -1.04785687e-01 -8.85388982e-02
 -7.35593178e-02 -5.69926173e-02 -1.98741098e-03  2.50524108e-02
  4.96453891e-02  6.72317433e-02  7.72307714e-02  8.80913884e-02
  9.70110173e-02  1.11649643e-01  1.20422210e-01  1.24234204e-01
  1.45473650e-01  1.52109306e-01  1.62617790e-01  1.84676517e-01
  1.97455220e-01  2.12573828e-01  2.20885327e-01  2.32530013e-01
  2.43744181e-01  2.64582938e-01  2.70180763e-01  2.87922655e-01
  2.96243353e-01  3.19393580e-01  3.40600254e-01  3.47618484e-01
  3.61908544e-01  3.88881016e-01  3.96779580e-01  3.98689807e-01
  4.44890585e-01  4.67772009e-01  4.78688985e-01  5.08306205e-01
  5.31434792e-01  5.61997872e-01  6.13328154e-01  6.27893509e-01
  6.72316395e-01  6.93841630e-01  7.19023384e-01  7.85939752e-01
  8.17818990e-01  8.22103516e-01  8.42919031e-01  9.76507268e-01]
nelec by numeric integration = 146.00000271558463
    CPU time for vxc     37.71 sec, wall time     15.78 sec
E1 = -4092.6912780279754  Ecoul = 1893.738867173424  Exc = -124.57460940009099
cycle= 1 E= -835.24939738648  delta_E= 5.67  |g|= 0.321  |ddm|= 9.27
    CPU time for cycle= 1     38.04 sec, wall time     15.83 sec
  HOMO = -0.0676166413430294  LUMO = -0.00250377613906212
  mo_energy =
[-1.00432619e+01 -1.00142429e+01 -1.00123160e+01 -1.00007407e+01
 -9.99922609e+00 -9.99700622e+00 -9.99599801e+00 -9.99465436e+00
 -9.99091855e+00 -9.98430162e+00 -9.98319737e+00 -9.97754778e+00
 -9.97299055e+00 -9.96098856e+00 -9.96050887e+00 -9.95765953e+00
 -9.94989567e+00 -9.94688895e+00 -9.94639036e+00 -9.94617741e+00
 -9.93770475e+00 -9.88612336e+00 -8.38010481e-01 -8.16213289e-01
 -7.82294886e-01 -7.57797856e-01 -7.39997231e-01 -7.28111546e-01
 -7.00357539e-01 -6.90092640e-01 -6.55021638e-01 -6.35715812e-01
 -6.06036059e-01 -6.02184127e-01 -5.83405863e-01 -5.61472383e-01
 -5.46301432e-01 -5.15869606e-01 -5.12195179e-01 -4.90641854e-01
 -4.74182125e-01 -4.58764590e-01 -4.48637418e-01 -4.34000749e-01
 -4.17158785e-01 -4.09984938e-01 -4.01777845e-01 -3.96386042e-01
 -3.73311779e-01 -3.70526886e-01 -3.63206091e-01 -3.56086663e-01
 -3.47149808e-01 -3.33801492e-01 -3.30897853e-01 -3.13358679e-01
 -2.97401560e-01 -2.94186625e-01 -2.89773992e-01 -2.80725787e-01
 -2.60371362e-01 -2.54364342e-01 -2.44156931e-01 -2.37835382e-01
 -2.22312501e-01 -1.96203409e-01 -1.85910373e-01 -1.81124050e-01
 -1.61370790e-01 -1.56342239e-01 -1.40216455e-01 -1.11640710e-01
 -6.76166413e-02 -2.50377614e-03  3.59158488e-02  6.56924666e-02
  9.05085968e-02  1.03436839e-01  1.73937705e-01  1.86636548e-01
  2.12220455e-01  2.16647098e-01  2.34994089e-01  2.39909706e-01
  2.56142083e-01  2.60714152e-01  2.76534995e-01  2.86967264e-01
  3.03190840e-01  3.12125009e-01  3.21813238e-01  3.31722074e-01
  3.51260592e-01  3.62640669e-01  3.73402286e-01  3.78636123e-01
  3.87628747e-01  3.89375115e-01  4.23746455e-01  4.40892743e-01
  4.47789338e-01  4.61336907e-01  4.78441330e-01  5.06141087e-01
  5.25276877e-01  5.36127492e-01  5.44120467e-01  5.70987954e-01
  6.02098785e-01  6.18478117e-01  6.43856068e-01  6.67326069e-01
  6.76016549e-01  7.19930563e-01  7.97466976e-01  8.13519029e-01
  8.25157177e-01  8.43731327e-01  9.03142205e-01  9.75030263e-01
  9.88213894e-01  1.00581610e+00  1.01179190e+00  1.19724230e+00]
nelec by numeric integration = 146.00000257107413
    CPU time for vxc     37.52 sec, wall time     15.60 sec
E1 = -4085.7271173283707  Ecoul = 1886.6305976703018  Exc = -124.39219125982576
cycle= 2 E= -835.211088049732  delta_E= 0.0383  |g|= 0.462  |ddm|= 1.26
    CPU time for cycle= 2     37.95 sec, wall time     15.67 sec
  HOMO = -0.0832601785420568  LUMO = -0.0165048257686119
  mo_energy =
[-10.03174454 -10.03098163 -10.0279455  -10.02742845 -10.0264581
 -10.01453486 -10.01098294 -10.00749638 -10.00684269 -10.00657206
 -10.00609313  -9.99799221  -9.99525781  -9.99519935  -9.99202792
  -9.99122697  -9.98924918  -9.98535999  -9.97657434  -9.97493479
  -9.9684623   -9.96411872  -0.86839867  -0.83783566  -0.81792689
  -0.76779291  -0.75897491  -0.74903742  -0.71399543  -0.69654564
  -0.68034265  -0.65054355  -0.62335424  -0.61423502  -0.59277625
  -0.57942958  -0.57366199  -0.52892213  -0.51979585  -0.50154561
  -0.48922799  -0.46541152  -0.4531474   -0.43863089  -0.43111405
  -0.42213771  -0.41332215  -0.41032328  -0.38895199  -0.37931938
  -0.3758925   -0.36701911  -0.35654515  -0.34944609  -0.34369391
  -0.34095531  -0.32535696  -0.31800229  -0.30286693  -0.29620734
  -0.26917873  -0.26790142  -0.26259763  -0.25671805  -0.24611535
  -0.22699644  -0.20777693  -0.18460447  -0.17751938  -0.17164452
  -0.16260963  -0.12613286  -0.08326018  -0.01650483   0.03318164
   0.05268527   0.06822054   0.08027614   0.14334228   0.17240154
   0.19713027   0.20804727   0.2171629    0.22736236   0.23960103
   0.25611606   0.26096412   0.26470211   0.27942135   0.29994047
   0.30897133   0.33265185   0.34642225   0.351219     0.35971153
   0.36347642   0.37187723   0.387217     0.41001237   0.43197615
   0.43602032   0.4525553    0.47800222   0.48745156   0.50668967
   0.5333716    0.53734225   0.54547012   0.57664372   0.61507811
   0.62560198   0.64845354   0.65895634   0.71926881   0.76578745
   0.77264099   0.80991871   0.8194349    0.8769153    0.93903738
   0.9667705    0.97709872   0.99845591   1.1367204 ]
nelec by numeric integration = 146.00000272286243
    CPU time for vxc     38.89 sec, wall time     15.96 sec
E1 = -4088.5431680393267  Ecoul = 1889.450285914554  Exc = -124.43880465102492
cycle= 3 E= -835.254063907635  delta_E= -0.043  |g|= 0.311  |ddm|= 1.22
    CPU time for cycle= 3     39.34 sec, wall time     16.03 sec
  HOMO = -0.0881286093043457  LUMO = -0.022309947890927
  mo_energy =
[-10.04372547 -10.03890798 -10.03853269 -10.03107101 -10.02221442
 -10.02130066 -10.02036183 -10.01951684 -10.01782022 -10.01654371
 -10.0146617  -10.0135048  -10.01018464 -10.00852711 -10.00109196
  -9.99429564  -9.99331146  -9.99219523  -9.99212935  -9.99028103
  -9.98084484  -9.97822723  -0.87149109  -0.84872381  -0.81850191
  -0.78191118  -0.76722716  -0.7616531   -0.7175697   -0.70511679
  -0.68188979  -0.65393909  -0.62742868  -0.61801984  -0.60291847
  -0.58429034  -0.57618497  -0.53109213  -0.52435354  -0.50423765
  -0.4927047   -0.47126518  -0.45762423  -0.44422032  -0.43905039
  -0.42971523  -0.41803826  -0.41540141  -0.39767385  -0.38531107
  -0.37912007  -0.37157457  -0.36981775  -0.35625775  -0.35378325
  -0.3395231   -0.32759655  -0.31959262  -0.30271862  -0.30117544
  -0.28177124  -0.27800735  -0.26843889  -0.26664654  -0.25392469
  -0.22233872  -0.20989438  -0.19266221  -0.18241114  -0.17615131
  -0.16604311  -0.12943558  -0.08812861  -0.02230995   0.02636021
   0.0453811    0.06415671   0.08242865   0.14162475   0.16316082
   0.18875214   0.2062284    0.21203122   0.22692328   0.23249164
   0.24991273   0.2553594    0.25891332   0.28518996   0.2934917
   0.30814605   0.32957329   0.33343096   0.34502983   0.35491735
   0.35691406   0.36925385   0.38500403   0.40844038   0.42270688
   0.432535     0.43687639   0.46271024   0.48190104   0.50186047
   0.5284464    0.5352104    0.54029333   0.57293751   0.59743999
   0.62847474   0.64837889   0.65383375   0.70334607   0.76134626
   0.77921923   0.80642042   0.81776092   0.86092299   0.93351625
   0.95963454   0.9624105    0.98285483   1.12851338]
nelec by numeric integration = 146.0000026956569
    CPU time for vxc     38.10 sec, wall time     15.84 sec
E1 = -4088.801974252129  Ecoul = 1889.6951152877075  Exc = -124.45100217676975
cycle= 4 E= -835.280238273029  delta_E= -0.0262  |g|= 0.186  |ddm|= 0.84
    CPU time for cycle= 4     38.80 sec, wall time     15.94 sec
  HOMO = -0.0901644115871878  LUMO = -0.0256091128862754
  mo_energy =
[-10.04882473 -10.0394125  -10.03423757 -10.03129355 -10.02532025
 -10.02273341 -10.02187754 -10.02092222 -10.02003881 -10.01655825
 -10.0151462  -10.01307322 -10.01071139 -10.01066248 -10.00874118
 -10.00444892 -10.00193194 -10.00036324  -9.9981192   -9.99029216
  -9.98689581  -9.98623466  -0.87063755  -0.85462682  -0.82021122
  -0.78279019  -0.76736078  -0.76250766  -0.71887029  -0.70889847
  -0.6828395   -0.65817229  -0.627965    -0.62007316  -0.60353075
  -0.58695744  -0.57606201  -0.53466438  -0.52699933  -0.50731758
  -0.49376284  -0.47243944  -0.45788855  -0.44518023  -0.43963182
  -0.43052559  -0.41861889  -0.41561468  -0.39765313  -0.38758165
  -0.37934408  -0.3750009   -0.36935087  -0.35706413  -0.35463387
  -0.34229992  -0.32906795  -0.32174822  -0.30693972  -0.30571431
  -0.28222994  -0.27966335  -0.26925147  -0.26706152  -0.25499763
  -0.2251702   -0.21223174  -0.1958972   -0.18464783  -0.18082702
  -0.16797606  -0.13290262  -0.09016441  -0.02560911   0.02301746
   0.04329871   0.06256564   0.07556729   0.13947015   0.16129798
   0.18817587   0.20529786   0.21041479   0.22586614   0.23075477
   0.24897816   0.25229445   0.25661506   0.28091699   0.28941018
   0.30448823   0.32933414   0.33492806   0.34664968   0.35348773
   0.3555224    0.36701099   0.37688634   0.40645183   0.42083374
   0.42963275   0.44217028   0.46750727   0.48476907   0.50353444
   0.52369192   0.5312907    0.53400541   0.57198826   0.60100856
   0.62066261   0.64470418   0.65114568   0.70134721   0.76108107
   0.77583977   0.80106524   0.81234942   0.8618985    0.9332366
   0.95818651   0.96239367   0.9805202    1.13145876]
nelec by numeric integration = 146.00000268226188
    CPU time for vxc     37.85 sec, wall time     15.83 sec
E1 = -4089.1083277116386  Ecoul = 1889.9928117244804  Exc = -124.45396030289174
cycle= 5 E= -835.291853421888  delta_E= -0.0116  |g|= 0.0648  |ddm|= 0.36
    CPU time for cycle= 5     38.35 sec, wall time     15.91 sec
  HOMO = -0.0910462804619972  LUMO = -0.0256267633900361
  mo_energy =
[-10.04289322 -10.03629725 -10.0300125  -10.02584926 -10.02483349
 -10.02120313 -10.01951581 -10.01844063 -10.01687306 -10.01633709
 -10.01440391 -10.01008215 -10.00810566 -10.00804073 -10.00478897
 -10.00440254 -10.00060133  -9.99978112  -9.99876752  -9.99870254
  -9.99683118  -9.99281844  -0.8694768   -0.85145492  -0.81898974
  -0.78052816  -0.76626876  -0.76141081  -0.71874649  -0.70757141
  -0.68232932  -0.65686813  -0.62701121  -0.62066497  -0.60376696
  -0.58590877  -0.57641724  -0.53358693  -0.52627307  -0.50641433
  -0.49291371  -0.4717987   -0.45758481  -0.44432469  -0.43878279
  -0.42986206  -0.41794391  -0.41480082  -0.39692685  -0.38653426
  -0.37866522  -0.37344713  -0.36899324  -0.35703861  -0.35382078
  -0.34258167  -0.32886508  -0.32087293  -0.30708795  -0.30463899
  -0.28088496  -0.2790424   -0.26845324  -0.26606356  -0.25432027
  -0.22653697  -0.21217181  -0.19508502  -0.18467081  -0.1805783
  -0.16801974  -0.13285853  -0.09104628  -0.02562676   0.02364034
   0.04339193   0.06247362   0.07529228   0.14008413   0.16293913
   0.1886521    0.20586124   0.21138229   0.22591688   0.23161015
   0.249544     0.25205957   0.25730808   0.28052551   0.29163081
   0.3039745    0.32990771   0.33532046   0.34773187   0.35374312
   0.35623099   0.36794396   0.38034385   0.40720193   0.42189856
   0.43024149   0.44063522   0.46560194   0.4841726    0.50291807
   0.52584092   0.53145165   0.53452892   0.57305997   0.60036176
   0.62200089   0.64738074   0.64952226   0.70327955   0.76296058
   0.77481393   0.80234541   0.8130871    0.86415204   0.93448319
   0.96010181   0.96429034   0.98334366   1.13381604]
nelec by numeric integration = 146.00000268430244
    CPU time for vxc     37.89 sec, wall time     15.77 sec
E1 = -4088.923275494655  Ecoul = 1889.803896076509  Exc = -124.4512609891548
cycle= 6 E= -835.293017539139  delta_E= -0.00116  |g|= 0.0306  |ddm|= 0.126
    CPU time for cycle= 6     38.35 sec, wall time     15.84 sec
  HOMO = -0.0901207944422243  LUMO = -0.0245207058829238
  mo_energy =
[-10.04253347 -10.03671699 -10.03095364 -10.02553583 -10.02294299
 -10.02059442 -10.01848037 -10.01724927 -10.01651267 -10.01504253
 -10.01134645 -10.00960576 -10.00817872 -10.00617502 -10.00428023
 -10.00394334 -10.00325877 -10.00103498  -9.9981493   -9.99728421
  -9.99271916  -9.99021032  -0.86937485  -0.8509067   -0.81850328
  -0.78018544  -0.76578571  -0.76046634  -0.71857034  -0.70694574
  -0.68230023  -0.65675611  -0.62630684  -0.61973623  -0.60248702
  -0.58526142  -0.57647442  -0.53306646  -0.52579205  -0.50596691
  -0.49302421  -0.4713127   -0.45740848  -0.44403482  -0.43873703
  -0.42900151  -0.41783735  -0.41475103  -0.39640478  -0.38666458
  -0.3785364   -0.37328493  -0.36781389  -0.35605078  -0.35365906
  -0.34215061  -0.32852832  -0.32048107  -0.30591492  -0.30425099
  -0.2803331   -0.27836052  -0.26834161  -0.26533635  -0.25423081
  -0.22602091  -0.21179394  -0.19436372  -0.18434091  -0.17981957
  -0.16793725  -0.13222525  -0.09012079  -0.02452071   0.02436989
   0.04376686   0.06282802   0.0761227    0.1405872    0.16335678
   0.18958821   0.20617007   0.21199658   0.2262682    0.23172308
   0.25058447   0.25290603   0.25774879   0.28164495   0.29211954
   0.30468307   0.3301897    0.33591914   0.34701743   0.35413406
   0.35674111   0.3681523    0.37980386   0.40771545   0.42255036
   0.43045505   0.44228902   0.467575     0.48339152   0.50215844
   0.52623101   0.53246193   0.53529049   0.57330155   0.60218859
   0.62352402   0.64762657   0.64943444   0.70388099   0.76301777
   0.77589335   0.80266909   0.81346637   0.8636148    0.93455594
   0.96056503   0.96499625   0.98409476   1.13342782]
nelec by numeric integration = 146.00000268920022
    CPU time for vxc     38.09 sec, wall time     15.81 sec
E1 = -4088.905806446673  Ecoul = 1889.7845386565343  Exc = -124.44963137631662
cycle= 7 E= -835.293276298293  delta_E= -0.000259  |g|= 0.0156  |ddm|= 0.0634
    CPU time for cycle= 7     38.62 sec, wall time     15.89 sec
  HOMO = -0.0899947297303301  LUMO = -0.0242923219126493
  mo_energy =
[-10.04238176 -10.03646816 -10.03138471 -10.02616609 -10.02357843
 -10.02055253 -10.0179092  -10.01777381 -10.0169095  -10.01342489
 -10.01136019 -10.01004898 -10.00971719 -10.00662236 -10.00394478
 -10.00227966 -10.00145125  -9.99903294  -9.99820638  -9.99519723
  -9.99276207  -9.99045026  -0.86929538  -0.85061425  -0.81858205
  -0.78023441  -0.76580245  -0.76040798  -0.71821229  -0.70671914
  -0.68200637  -0.65625661  -0.62630381  -0.61953185  -0.60236663
  -0.5853377   -0.57605906  -0.5329806   -0.52554894  -0.50582921
  -0.49278381  -0.47111688  -0.45723961  -0.44390304  -0.43844242
  -0.42917677  -0.41759539  -0.41470074  -0.39634248  -0.38625252
  -0.37842966  -0.37322909  -0.36776394  -0.35594083  -0.35353566
  -0.34223813  -0.32845434  -0.32050681  -0.30596943  -0.30407549
  -0.28040917  -0.27831935  -0.26825692  -0.26532208  -0.25410577
  -0.2258498   -0.21164681  -0.1941395   -0.18400633  -0.17950536
  -0.16765774  -0.13192829  -0.08999473  -0.02429232   0.02473329
   0.0441664    0.06307083   0.076603     0.14053501   0.16329939
   0.1895663    0.20633472   0.21217377   0.22627595   0.23181639
   0.25074077   0.25294861   0.25769318   0.28136243   0.29232822
   0.30489377   0.33020274   0.33597929   0.34732735   0.35420109
   0.35686933   0.36799929   0.38035347   0.40779319   0.42272152
   0.43079198   0.44211629   0.46742274   0.48415565   0.50297842
   0.52657409   0.5328405    0.53536012   0.57323335   0.6020742
   0.62324772   0.64810644   0.65006934   0.7039742    0.76294994
   0.77587123   0.80306282   0.81376599   0.86397517   0.93459938
   0.96048953   0.96494165   0.98405484   1.13349614]
nelec by numeric integration = 146.00000268691016
    CPU time for vxc     37.88 sec, wall time     15.81 sec
E1 = -4088.8956099083916  Ecoul = 1889.7738745619104  Exc = -124.44924727416453
cycle= 8 E= -835.293359752484  delta_E= -8.35e-05  |g|= 0.00297  |ddm|= 0.0246
    CPU time for cycle= 8     38.27 sec, wall time     15.88 sec
  HOMO = -0.0900646434419748  LUMO = -0.0242503403653442
  mo_energy =
[-10.04282847 -10.03675733 -10.03150809 -10.02638176 -10.02352168
 -10.02051266 -10.01772733 -10.01771107 -10.01692074 -10.01393627
 -10.01090527 -10.01004083 -10.00954849 -10.00695144 -10.00370574
 -10.00235992 -10.00144158  -9.9993029   -9.99748992  -9.99536997
  -9.99321664  -9.99006625  -0.86931257  -0.85083966  -0.81851705
  -0.78021768  -0.76579313  -0.760525    -0.71816871  -0.70681647
  -0.68196263  -0.65634353  -0.62630611  -0.61955363  -0.60252869
  -0.58534763  -0.57600242  -0.5329857   -0.52560921  -0.50585479
  -0.49275916  -0.47120037  -0.45722825  -0.44390156  -0.43850371
  -0.42919533  -0.41764352  -0.41469583  -0.39637592  -0.38626936
  -0.37840342  -0.37322068  -0.3679473   -0.35607077  -0.35354627
  -0.34214232  -0.32839385  -0.32045916  -0.30598972  -0.30413049
  -0.2803876   -0.27834958  -0.26820484  -0.26540134  -0.25405127
  -0.22572123  -0.21161022  -0.19422669  -0.18397341  -0.17958257
  -0.16759498  -0.13199203  -0.09006464  -0.02425034   0.02462306
   0.04418238   0.06312833   0.07655357   0.14060693   0.16331253
   0.18953248   0.2063322    0.21206793   0.22638347   0.2318502
   0.25061649   0.25295208   0.25780714   0.28142657   0.29217705
   0.30495619   0.33022765   0.33590431   0.3474322    0.35427472
   0.35681163   0.36812865   0.38024326   0.40773965   0.42267126
   0.43078007   0.44198162   0.46723222   0.48423493   0.5030374
   0.52644943   0.5327526    0.53529333   0.57327356   0.60189837
   0.62324572   0.64797305   0.6500041    0.70396869   0.76306667
   0.7759994    0.80303404   0.81379658   0.86395267   0.93467903
   0.96048452   0.96484558   0.98385774   1.13335839]
nelec by numeric integration = 146.00000268672846
    CPU time for vxc     37.96 sec, wall time     15.77 sec
E1 = -4088.9013204374514  Ecoul = 1889.7796712944007  Exc = -124.44933614127525
cycle= 9 E= -835.293362416164  delta_E= -2.66e-06  |g|= 0.00111  |ddm|= 0.00516
    CPU time for cycle= 9     38.57 sec, wall time     15.87 sec
  HOMO = -0.0901141665132885  LUMO = -0.0242675906961364
  mo_energy =
[-10.04277251 -10.03671983 -10.03137654 -10.0262467  -10.02360234
 -10.02056422 -10.01786635 -10.01769466 -10.01695805 -10.01384443
 -10.0109603  -10.00994508 -10.00954667 -10.00701977 -10.00378597
 -10.00249003 -10.00159292  -9.99944746  -9.99763386  -9.99517255
  -9.99323601  -9.99025129  -0.86930336  -0.85083318  -0.81854372
  -0.78024757  -0.7658164   -0.76055566  -0.71816093  -0.70681668
  -0.68198499  -0.65636703  -0.62632542  -0.61958332  -0.60254759
  -0.58533803  -0.57602014  -0.53300629  -0.52562322  -0.50587498
  -0.49277606  -0.47122288  -0.45723678  -0.44390753  -0.43851587
  -0.42920114  -0.41764233  -0.41471209  -0.39639514  -0.38630422
  -0.3783981   -0.37322779  -0.36795542  -0.35608068  -0.35354985
  -0.34211736  -0.32839141  -0.32047756  -0.30597298  -0.30414934
  -0.28041979  -0.27835915  -0.26822094  -0.2654216   -0.25407516
  -0.22573033  -0.2116083   -0.19423391  -0.18396671  -0.1795995
  -0.16762628  -0.13201691  -0.09011417  -0.02426759   0.02460079
   0.04417764   0.0631461    0.07651742   0.1405932    0.16329927
   0.18950094   0.20634131   0.21205805   0.2263844    0.23184504
   0.25059917   0.25293921   0.25778999   0.28145771   0.29218103
   0.30492485   0.33023495   0.33588243   0.34741519   0.35425784
   0.35676144   0.36809251   0.38018455   0.4077796    0.42264922
   0.43076022   0.44195953   0.46721425   0.48422099   0.50302607
   0.52643552   0.53273717   0.53532559   0.57328059   0.60186335
   0.62323297   0.64795904   0.6500396    0.70393148   0.76302273
   0.77593266   0.80301537   0.81377177   0.86393147   0.93464784
   0.96047571   0.96482043   0.98386211   1.13341589]
nelec by numeric integration = 146.0000026871617
    CPU time for vxc     37.86 sec, wall time     15.80 sec
E1 = -4088.9023689129135  Ecoul = 1889.7807847620359  Exc = -124.44940151675954
cycle= 10 E= -835.293362799475  delta_E= -3.83e-07  |g|= 0.000476  |ddm|= 0.00201
    CPU time for cycle= 10     38.29 sec, wall time     15.87 sec
  HOMO = -0.0901207405434833  LUMO = -0.0242756934707606
  mo_energy =
[-10.04277495 -10.03672557 -10.03141482 -10.0262875  -10.02360222
 -10.02054887 -10.01785849 -10.01772983 -10.01695226 -10.01389862
 -10.01104017 -10.01001114 -10.00960076 -10.00699355 -10.00386716
 -10.00246029 -10.00157352  -9.99941566  -9.99764829  -9.99530499
  -9.99319215  -9.99025027  -0.86932727  -0.85084138  -0.8185644
  -0.78025499  -0.76582505  -0.76056378  -0.71818925  -0.70683204
  -0.68200164  -0.65637246  -0.6263361   -0.619591    -0.60254521
  -0.58535791  -0.57604059  -0.53301428  -0.5256325   -0.50588318
  -0.49278661  -0.47123114  -0.45724811  -0.44392074  -0.43852127
  -0.42921361  -0.41765278  -0.4147133   -0.39640125  -0.38630526
  -0.37841952  -0.37324162  -0.36795259  -0.35608142  -0.35356028
  -0.34213629  -0.32841311  -0.32049416  -0.30598912  -0.30415504
  -0.28042837  -0.27836949  -0.26823148  -0.26542946  -0.25408582
  -0.22574336  -0.21162675  -0.194246    -0.18399357  -0.17960933
  -0.16764465  -0.13202438  -0.09012074  -0.02427569   0.02459855
   0.04415625   0.06311339   0.07650916   0.14058022   0.16328867
   0.18949021   0.20632385   0.21205053   0.22637055   0.23183735
   0.25059788   0.25292891   0.25778073   0.2814348    0.29217286
   0.30491862   0.33021783   0.33589271   0.34739123   0.35424745
   0.35676101   0.36810109   0.38019179   0.40775014   0.42264167
   0.43074269   0.44196732   0.46723065   0.48419979   0.50300346
   0.52642839   0.53272818   0.53530113   0.57326471   0.60187079
   0.62321456   0.64794773   0.65000055   0.70392707   0.76300244
   0.77592165   0.80300076   0.81375518   0.86391823   0.93462889
   0.96046431   0.96480509   0.98384748   1.1333912 ]
nelec by numeric integration = 146.00000268707137
    CPU time for vxc     37.89 sec, wall time     15.82 sec
E1 = -4088.903698429217  Ecoul = 1889.7821443688654  Exc = -124.44943167805354
cycle= 11 E= -835.293362870243  delta_E= -7.08e-08  |g|= 0.000158  |ddm|= 0.000724
    CPU time for cycle= 11     38.35 sec, wall time     15.89 sec
  HOMO = -0.0901182189730182  LUMO = -0.0242686060788507
  mo_energy =
[-10.04277691 -10.03672724 -10.0314308  -10.02629297 -10.02358206
 -10.02056057 -10.01783599 -10.01773736 -10.01694318 -10.01390275
 -10.01101466 -10.00999425 -10.00957861 -10.00697094 -10.00382294
 -10.00246846 -10.00157662  -9.99941001  -9.99768037  -9.99529863
  -9.99319531  -9.99025688  -0.86932611  -0.85083953  -0.81855861
  -0.78024839  -0.76582409  -0.7605517   -0.71819284  -0.70683099
  -0.68199883  -0.65637196  -0.62633078  -0.61958805  -0.60254004
  -0.58535352  -0.57604124  -0.53301283  -0.52562893  -0.50588199
  -0.49278913  -0.47122407  -0.45724554  -0.44391785  -0.43851741
  -0.4292067   -0.41765064  -0.41471543  -0.39639512  -0.38630263
  -0.37842036  -0.37323819  -0.36794726  -0.35607779  -0.3535577
  -0.34213849  -0.32841481  -0.32048958  -0.30598772  -0.30414913
  -0.28041918  -0.27836282  -0.26823429  -0.26542203  -0.254085
  -0.22574776  -0.21162902  -0.19424173  -0.18399682  -0.17960641
  -0.16764197  -0.1320226   -0.09011822  -0.02426861   0.02460319
   0.044157     0.06311243   0.0765081    0.14058031   0.16328837
   0.1895006    0.20632359   0.21205647   0.22637119   0.23183873
   0.25060412   0.25293076   0.25777238   0.28143579   0.29217516
   0.30491597   0.33022088   0.33589845   0.34739731   0.35424966
   0.35677428   0.36809141   0.38019963   0.40774898   0.42264851
   0.43074768   0.44197759   0.46723837   0.48419613   0.50299971
   0.52643217   0.53272788   0.53529958   0.57325924   0.60188401
   0.62322355   0.64795247   0.65000302   0.703936     0.76301401
   0.77592643   0.80299476   0.81374944   0.86392366   0.93463422
   0.96046196   0.96481785   0.98385699   1.133385  ]
nelec by numeric integration = 146.00000268707473
    CPU time for vxc     38.07 sec, wall time     15.90 sec
E1 = -4088.9032367968316  Ecoul = 1889.7816697196058  Exc = -124.4494186695072
cycle= 12 E= -835.293362878571  delta_E= -8.33e-09  |g|= 7.48e-05  |ddm|= 0.000333
    CPU time for cycle= 12     38.53 sec, wall time     15.97 sec
  HOMO = -0.0901154807724811  LUMO = -0.024266510030281
  mo_energy =
[-10.04276665 -10.03671723 -10.03141314 -10.02627056 -10.02359261
 -10.02055347 -10.01783628 -10.0177265  -10.01694251 -10.01388679
 -10.01101302 -10.01000892 -10.0095761  -10.00696886 -10.0038143
 -10.00246212 -10.00156627  -9.99941834  -9.99765288  -9.99529488
  -9.99317696  -9.99026012  -0.86932157  -0.85083128  -0.81855698
  -0.78024561  -0.76581902  -0.76054745  -0.71818571  -0.70682382
  -0.68199611  -0.65636812  -0.62632809  -0.61958489  -0.60253441
  -0.5853526   -0.57603703  -0.53300972  -0.52562598  -0.50587801
  -0.49278402  -0.47121934  -0.45724307  -0.44391488  -0.43851465
  -0.42920372  -0.41764792  -0.4147119   -0.39639266  -0.38630065
  -0.37841564  -0.37323672  -0.36794086  -0.3560718   -0.3535545
  -0.34213941  -0.32841074  -0.32048817  -0.3059873   -0.30414739
  -0.28041719  -0.27835968  -0.26822914  -0.26541646  -0.25408151
  -0.22574713  -0.21162438  -0.19423607  -0.18398896  -0.17960187
  -0.16763921  -0.13201954  -0.09011548  -0.02426651   0.02460689
   0.04416225   0.0631174    0.07651253   0.14058232   0.16329398
   0.18950421   0.20632743   0.2120609    0.22637083   0.23183949
   0.25060926   0.25293368   0.25777873   0.28143307   0.29218213
   0.30491861   0.33022247   0.33590009   0.34740019   0.35424971
   0.35677651   0.36809621   0.38019833   0.40775376   0.42265175
   0.43075067   0.44198292   0.46724343   0.48420253   0.50300665
   0.52643626   0.5327325    0.53530408   0.57326513   0.6018894
   0.62321971   0.64795434   0.6500054    0.70393794   0.76301354
   0.7759246    0.80300412   0.81375807   0.86392786   0.93463665
   0.96046932   0.96482419   0.98386605   1.13339521]
nelec by numeric integration = 146.00000268707524
    CPU time for vxc     38.21 sec, wall time     15.95 sec
E1 = -4088.9029856996854  Ecoul = 1889.78140610536  Exc = -124.44940615161289
cycle= 13 E= -835.293362877776  delta_E= 7.94e-10  |g|= 8.78e-05  |ddm|= 0.000217
    CPU time for cycle= 13     38.68 sec, wall time     16.02 sec
  HOMO = -0.0901173818862372  LUMO = -0.0242672394116126
  mo_energy =
[-10.04277395 -10.03671762 -10.03141455 -10.0262805  -10.02358507
 -10.02055519 -10.01784385 -10.01772949 -10.01694475 -10.01389977
 -10.01101414 -10.01000215 -10.00958227 -10.00697241 -10.00382568
 -10.00246532 -10.00156854  -9.99941783  -9.99766482  -9.99529267
  -9.99318836  -9.99024407  -0.86932067  -0.85083715  -0.81855589
  -0.7802482   -0.76582032  -0.76055199  -0.71818779  -0.70682835
  -0.68199621  -0.65637019  -0.6263291   -0.61958545  -0.60253842
  -0.58535253  -0.57603733  -0.53301083  -0.5256283   -0.50588013
  -0.4927859   -0.47122318  -0.45724403  -0.44391631  -0.43851636
  -0.42920561  -0.41764923  -0.41471264  -0.39639424  -0.38630208
  -0.37841574  -0.37323749  -0.36794558  -0.35607586  -0.35355628
  -0.34213707  -0.32841066  -0.32048785  -0.30598701  -0.3041497
  -0.28041924  -0.27836229  -0.26823035  -0.26542048  -0.25408227
  -0.22574472  -0.21162515  -0.19424006  -0.18399154  -0.17960464
  -0.16763954  -0.13202066  -0.09011738  -0.02426724   0.02460417
   0.04415999   0.06311665   0.07651053   0.14058307   0.16329117
   0.18950115   0.20632683   0.21205783   0.22637188   0.23183895
   0.25060519   0.25293351   0.2577775    0.28143603   0.29217754
   0.30491955   0.33022286   0.3358975    0.34739923   0.35425037
   0.35677322   0.36809468   0.38019669   0.40775328   0.42264874
   0.43074909   0.4419783    0.46723931   0.48420099   0.50300509
   0.52643201   0.5327301    0.5353036    0.57326419   0.60188432
   0.62322181   0.64795273   0.65000595   0.70393506   0.76301394
   0.77592969   0.80299901   0.81375401   0.86392552   0.93463691
   0.96046685   0.96481909   0.98385923   1.13339475]
nelec by numeric integration = 146.00000268706265
    CPU time for vxc     37.93 sec, wall time     15.81 sec
E1 = -4088.9029817357923  Ecoul = 1889.781407659396  Exc = -124.44941167188566
cycle= 14 E= -835.29336288012  delta_E= -2.34e-09  |g|= 4.2e-05  |ddm|= 0.000202
    CPU time for cycle= 14     38.36 sec, wall time     15.88 sec
  HOMO = -0.0901172916448562  LUMO = -0.0242672825040195
  mo_energy =
[-10.04277352 -10.03672273 -10.03141986 -10.02628125 -10.02358852
 -10.0205555  -10.01784007 -10.01773012 -10.01694565 -10.0138947
 -10.01101627 -10.00999934 -10.00958194 -10.00697387 -10.00382435
 -10.00246371 -10.00157211  -9.9994145   -9.99766133  -9.99529373
  -9.99318546  -9.99025216  -0.86932345  -0.85083625  -0.81855777
  -0.78024822  -0.76582142  -0.76055155  -0.7181879   -0.70682763
  -0.68199747  -0.65637023  -0.6263297   -0.61958603  -0.60253776
  -0.58535302  -0.57603827  -0.53301094  -0.52562803  -0.50587998
  -0.4927863   -0.47122261  -0.45724433  -0.44391663  -0.4385165
  -0.42920572  -0.4176495   -0.4147134   -0.39639463  -0.38630187
  -0.37841733  -0.37323766  -0.36794488  -0.35607533  -0.35355645
  -0.34213812  -0.32841178  -0.32048906  -0.30598709  -0.30414909
  -0.28041936  -0.27836205  -0.26823121  -0.2654204   -0.25408316
  -0.22574594  -0.21162573  -0.19423926  -0.18399164  -0.17960412
  -0.16764033  -0.13202073  -0.09011729  -0.02426728   0.02460474
   0.04416019   0.06311612   0.07651077   0.1405818    0.16329106
   0.18950118   0.20632603   0.21205821   0.22637107   0.23183858
   0.25060596   0.2529326    0.25777717   0.2814354    0.29217799
   0.30491856   0.33022164   0.33589834   0.34739781   0.35424967
   0.35677406   0.36809488   0.38019811   0.40775227   0.42264943
   0.43074869   0.44197903   0.46723982   0.48420018   0.50300415
   0.52643332   0.53273057   0.53530277   0.57326335   0.60188491
   0.62322154   0.64795302   0.65000517   0.70393558   0.76301239
   0.77592669   0.80300012   0.81375486   0.86392432   0.9346351
   0.96046605   0.96481899   0.98385963   1.13339083]
nelec by numeric integration = 146.00000268707524
    CPU time for vxc     38.71 sec, wall time     15.93 sec
E1 = -4088.9031003388923  Ecoul = 1889.781527246888  Exc = -124.4494126568961
cycle= 15 E= -835.293362880738  delta_E= -6.19e-10  |g|= 1.31e-05  |ddm|= 6.48e-05
    CPU time for cycle= 15     39.14 sec, wall time     16.00 sec
  HOMO = -0.0901177474113385  LUMO = -0.0242674823900085
  mo_energy =
[-10.04277354 -10.03672165 -10.03141857 -10.02628055 -10.02358819
 -10.02055536 -10.01783984 -10.01772992 -10.01694454 -10.0138975
 -10.01101563 -10.01000097 -10.00958077 -10.00697328 -10.00382457
 -10.00246527 -10.00157146  -9.99941484  -9.99766205  -9.99529435
  -9.99318777  -9.99025306  -0.86932303  -0.85083647  -0.81855754
  -0.78024791  -0.76582123  -0.7605517   -0.71818805  -0.70682792
  -0.6819974   -0.65637043  -0.62632961  -0.61958632  -0.60253812
  -0.58535296  -0.57603828  -0.53301108  -0.52562826  -0.50588019
  -0.49278628  -0.47122285  -0.4572443   -0.44391658  -0.43851643
  -0.42920571  -0.41764948  -0.41471323  -0.39639455  -0.38630191
  -0.37841712  -0.37323759  -0.36794515  -0.35607557  -0.35355636
  -0.34213807  -0.32841172  -0.32048894  -0.30598743  -0.30414925
  -0.28041917  -0.27836213  -0.26823106  -0.26542042  -0.25408302
  -0.22574609  -0.21162581  -0.19423954  -0.18399186  -0.17960453
  -0.16764037  -0.13202099  -0.09011775  -0.02426748   0.02460444
   0.04416      0.06311605   0.07651006   0.14058193   0.16329116
   0.18950107   0.20632606   0.21205805   0.2263712    0.23183867
   0.25060567   0.25293249   0.25777714   0.28143524   0.29217791
   0.30491828   0.33022184   0.33589833   0.34739824   0.35424968
   0.35677391   0.36809489   0.38019795   0.40775225   0.42264928
   0.43074855   0.44197877   0.4672395    0.48420028   0.50300423
   0.52643305   0.53272998   0.53530261   0.57326351   0.60188468
   0.62322133   0.64795282   0.65000503   0.70393573   0.76301285
   0.77592656   0.80299959   0.8137544    0.86392483   0.93463546
   0.96046625   0.96481909   0.98385966   1.13339161]
nelec by numeric integration = 146.0000026870743
    CPU time for vxc     38.36 sec, wall time     15.92 sec
E1 = -4088.9030841112362  Ecoul = 1889.7815111835416  Exc = -124.44941282124971
cycle= 16 E= -835.293362880783  delta_E= -4.41e-11  |g|= 7.25e-06  |ddm|= 2.35e-05
    CPU time for cycle= 16     39.19 sec, wall time     16.04 sec
  HOMO = -0.0901176137107268  LUMO = -0.0242674601919206
  mo_energy =
[-10.04277505 -10.03672247 -10.03141988 -10.02628141 -10.02358794
 -10.02055579 -10.01783933 -10.01773058 -10.01694508 -10.01389874
 -10.01101579 -10.01000044 -10.0095813  -10.00697214 -10.00382313
 -10.00246555 -10.00157211  -9.99941956  -9.99766276  -9.99529517
  -9.99318261  -9.9902531   -0.86932352  -0.85083728  -0.81855788
  -0.78024812  -0.76582139  -0.76055137  -0.7181885   -0.70682831
  -0.68199777  -0.65637111  -0.62632972  -0.61958627  -0.60253767
  -0.58535327  -0.57603861  -0.53301148  -0.52562847  -0.50588049
  -0.49278668  -0.47122277  -0.45724444  -0.44391683  -0.43851668
  -0.42920553  -0.41764972  -0.41471349  -0.39639453  -0.38630237
  -0.37841755  -0.3732381   -0.36794469  -0.3560753   -0.35355656
  -0.34213832  -0.32841207  -0.32048921  -0.30598748  -0.30414956
  -0.28041911  -0.27836204  -0.26823139  -0.2654202   -0.25408332
  -0.2257463   -0.21162613  -0.1942397   -0.18399228  -0.17960478
  -0.16764069  -0.13202124  -0.09011761  -0.02426746   0.02460425
   0.04415967   0.06311565   0.07650959   0.14058164   0.16329087
   0.18950142   0.20632572   0.21205797   0.2263711    0.23183842
   0.25060584   0.25293247   0.25777676   0.28143513   0.2921774
   0.30491795   0.33022165   0.33589865   0.34739795   0.35424947
   0.35677421   0.36809463   0.38019667   0.40775176   0.42264917
   0.43074825   0.44198018   0.46724099   0.48419985   0.50300376
   0.52643245   0.53272958   0.53530215   0.57326308   0.60188593
   0.62322095   0.64795189   0.65000454   0.70393555   0.76301261
   0.7759264    0.80299891   0.81375385   0.86392432   0.93463515
   0.96046587   0.96481929   0.98385953   1.13339077]
nelec by numeric integration = 146.00000268707612
    CPU time for vxc     38.42 sec, wall time     15.89 sec
E1 = -4088.903151291164  Ecoul = 1889.7815788760263  Exc = -124.44941333350297
Extra cycle  E= -835.293362880478  delta_E= 3.04e-10  |g|= 3e-05  |ddm|= 5.46e-05
    CPU time for scf_cycle    702.80 sec, wall time    288.61 sec
    CPU time for SCF    702.80 sec, wall time    288.61 sec
converged SCF energy = -835.293362880478
nelec by numeric integration = 146.00000268707612
    CPU time for vxc     38.07 sec, wall time     15.80 sec
 ** Mulliken pop  **
pop of  0 C 1s            1.99104
pop of  0 C 2s            1.00492
pop of  0 C 2px           1.02447
pop of  0 C 2py           1.00396
pop of  0 C 2pz           1.04119
pop of  1 C 1s            1.99141
pop of  1 C 2s            1.06982
pop of  1 C 2px           1.02084
pop of  1 C 2py           0.93375
pop of  1 C 2pz           0.99585
pop of  2 C 1s            1.99143
pop of  2 C 2s            1.20293
pop of  2 C 2px           0.97044
pop of  2 C 2py           0.93344
pop of  2 C 2pz           0.98452
pop of  3 C 1s            1.99120
pop of  3 C 2s            1.14171
pop of  3 C 2px           1.01850
pop of  3 C 2py           0.92074
pop of  3 C 2pz           0.98517
pop of  4 C 1s            1.99120
pop of  4 C 2s            1.15405
pop of  4 C 2px           1.01265
pop of  4 C 2py           0.96628
pop of  4 C 2pz           0.98040
pop of  5 C 1s            1.99156
pop of  5 C 2s            1.22973
pop of  5 C 2px           0.93547
pop of  5 C 2py           0.90713
pop of  5 C 2pz           0.92341
pop of  6 C 1s            1.99162
pop of  6 C 2s            1.11902
pop of  6 C 2px           0.97382
pop of  6 C 2py           1.00208
pop of  6 C 2pz           0.94754
pop of  7 C 1s            1.99131
pop of  7 C 2s            1.17432
pop of  7 C 2px           1.00318
pop of  7 C 2py           1.00567
pop of  7 C 2pz           0.96062
pop of  8 C 1s            1.99118
pop of  8 C 2s            1.15442
pop of  8 C 2px           0.97124
pop of  8 C 2py           0.92794
pop of  8 C 2pz           0.95386
pop of  9 C 1s            1.99025
pop of  9 C 2s            1.06379
pop of  9 C 2px           1.01360
pop of  9 C 2py           0.99870
pop of  9 C 2pz           1.01402
pop of  10 C 1s           1.99133
pop of  10 C 2s           1.17156
pop of  10 C 2px          0.98964
pop of  10 C 2py          0.94548
pop of  10 C 2pz          0.94883
pop of  11 C 1s           1.99228
pop of  11 C 2s           1.27772
pop of  11 C 2px          0.95182
pop of  11 C 2py          0.89339
pop of  11 C 2pz          0.90913
pop of  12 C 1s           1.99085
pop of  12 C 2s           1.11764
pop of  12 C 2px          0.99925
pop of  12 C 2py          0.98196
pop of  12 C 2pz          0.95287
pop of  13 C 1s           1.99227
pop of  13 C 2s           1.30173
pop of  13 C 2px          0.91059
pop of  13 C 2py          0.89875
pop of  13 C 2pz          0.87492
pop of  14 C 1s           1.99106
pop of  14 C 2s           1.19152
pop of  14 C 2px          0.95032
pop of  14 C 2py          0.94494
pop of  14 C 2pz          0.95617
pop of  15 C 1s           1.99096
pop of  15 C 2s           1.13129
pop of  15 C 2px          1.05703
pop of  15 C 2py          0.92665
pop of  15 C 2pz          1.00393
pop of  16 C 1s           1.99114
pop of  16 C 2s           1.09473
pop of  16 C 2px          1.00485
pop of  16 C 2py          0.95294
pop of  16 C 2pz          0.96527
pop of  17 C 1s           1.99035
pop of  17 C 2s           1.02079
pop of  17 C 2px          1.02541
pop of  17 C 2py          1.00734
pop of  17 C 2pz          1.00703
pop of  18 C 1s           1.99157
pop of  18 C 2s           1.25053
pop of  18 C 2px          0.99888
pop of  18 C 2py          0.89092
pop of  18 C 2pz          0.91389
pop of  19 C 1s           1.99191
pop of  19 C 2s           1.26513
pop of  19 C 2px          0.93426
pop of  19 C 2py          0.90678
pop of  19 C 2pz          0.92016
pop of  20 C 1s           1.99103
pop of  20 C 2s           1.10431
pop of  20 C 2px          1.01350
pop of  20 C 2py          0.99192
pop of  20 C 2pz          1.00070
pop of  21 C 1s           1.99166
pop of  21 C 2s           1.13884
pop of  21 C 2px          1.01021
pop of  21 C 2py          0.96251
pop of  21 C 2pz          0.99001
pop of  22 H 1s           0.89963
pop of  23 H 1s           0.90610
pop of  24 H 1s           0.89349
pop of  25 H 1s           0.94635
pop of  26 H 1s           0.94309
pop of  27 H 1s           0.88214
pop of  28 H 1s           0.94819
pop of  29 H 1s           0.98053
pop of  30 H 1s           0.91472
pop of  31 H 1s           0.87831
pop of  32 H 1s           0.92131
pop of  33 H 1s           0.93112
pop of  34 H 1s           0.93827
pop of  35 H 1s           0.90489
 ** Mulliken atomic charges  **
charge of    0C =     -0.06558
charge of    1C =     -0.01168
charge of    2C =     -0.08277
charge of    3C =     -0.05733
charge of    4C =     -0.10458
charge of    5C =      0.01270
charge of    6C =     -0.03408
charge of    7C =     -0.13511
charge of    8C =      0.00136
charge of    9C =     -0.08036
charge of   10C =     -0.04684
charge of   11C =     -0.02435
charge of   12C =     -0.04257
charge of   13C =      0.02173
charge of   14C =     -0.03402
charge of   15C =     -0.10985
charge of   16C =     -0.00893
charge of   17C =     -0.05093
charge of   18C =     -0.04579
charge of   19C =     -0.01824
charge of   20C =     -0.10146
charge of   21C =     -0.09323
charge of   22H =      0.10037
charge of   23H =      0.09390
charge of   24H =      0.10651
charge of   25H =      0.05365
charge of   26H =      0.05691
charge of   27H =      0.11786
charge of   28H =      0.05181
charge of   29H =      0.01947
charge of   30H =      0.08528
charge of   31H =      0.12169
charge of   32H =      0.07869
charge of   33H =      0.06888
charge of   34H =      0.06173
charge of   35H =      0.09511
Dipole moment(X, Y, Z, Debye): -0.08443, -0.40319,  0.14548
nelec by numeric integration = 146.00000268707612
    CPU time for vxc     38.10 sec, wall time     15.91 sec
E1 = -4088.903151291164  Ecoul = 1889.7815788760265  Exc = -124.44941333350297
nelec by numeric integration = 146.00000268707612
    CPU time for vxc     37.38 sec, wall time     15.76 sec
E1 = -4088.903151291164  Ecoul = 1889.7815788760267  Exc = -124.44941333350297
