System: uname_result(system='Linux', node='cosmopc18', release='5.15.0-97-generic', version='#107-Ubuntu SMP Wed Feb 7 13:26:48 UTC 2024', machine='x86_64')  Threads 4
Python 3.11.8 (main, Feb 26 2024, 21:39:34) [GCC 11.2.0]
numpy 1.26.4  scipy 1.11.4
Date: Tue Apr  9 15:23:03 2024
PySCF version 2.3.0
PySCF path  /home/saade/miniconda3/envs/tutorial/lib/python3.11/site-packages/pyscf

[ENV] PYSCFAD_BACKEND torch
[CONFIG] conf_file None
[INPUT] verbose = 5
[INPUT] max_memory = 4000 
[INPUT] num. atoms = 36
[INPUT] num. electrons = 146
[INPUT] charge = 0
[INPUT] spin (= nelec alpha-beta = 2S) = 0
[INPUT] symmetry False subgroup None
[INPUT] Mole.unit = angstrom
[INPUT] Symbol           X                Y                Z      unit          X                Y                Z       unit  Magmom
[INPUT]  1 C     -0.004546000000   3.652743000000   0.584253000000 AA   -0.008590694962   6.902683873422   1.104078157456 Bohr   0.0
[INPUT]  2 C     -0.103106000000   3.523927000000  -0.828197000000 AA   -0.194842101799   6.659256912960  -1.565065507186 Bohr   0.0
[INPUT]  3 C      0.011267000000   4.712591000000   1.445739000000 AA    0.021291544245   8.905506327090   2.732050757603 Bohr   0.0
[INPUT]  4 C     -0.049731000000   2.397464000000   1.506334000000 AA   -0.093977969901   4.530550353504   2.846558712121 Bohr   0.0
[INPUT]  5 C     -0.052729000000   4.886270000000  -1.514162000000 AA   -0.099643368822   9.233712070679  -2.861351488224 Bohr   0.0
[INPUT]  6 C     -0.079955000000   2.505217000000  -1.381689000000 AA   -0.151093052290   4.734174012605  -2.611013799324 Bohr   0.0
[INPUT]  7 C     -0.052439000000   6.214381000000  -0.598062000000 AA   -0.099095348246  11.743478123701  -1.130173385510 Bohr   0.0
[INPUT]  8 C      0.066601000000   6.051050000000   0.693368000000 AA    0.125857649622  11.434827266049   1.310275623537 Bohr   0.0
[INPUT]  9 C     -0.182668000000   1.246034000000   0.841594000000 AA   -0.345192491722   2.354663001896   1.590382168077 Bohr   0.0
[INPUT] 10 C     -0.113376000000   1.162685000000  -0.859701000000 AA   -0.214249589099   2.197156219140  -1.624599439015 Bohr   0.0
[INPUT] 11 C      0.093093000000   0.131120000000   1.214963000000 AA    0.175920274114   0.247780889453   2.295947321480 Bohr   0.0
[INPUT] 12 C     -0.015273000000   0.040516000000  -1.344778000000 AA   -0.028861787100   0.076564143663  -2.541262118340 Bohr   0.0
[INPUT] 13 C     -0.008990000000  -1.183953000000   0.951846000000 AA   -0.016988637860  -2.237346914357   1.798728252763 Bohr   0.0
[INPUT] 14 C      0.008568000000  -1.285907000000  -0.685198000000 AA    0.016191173435  -2.430012051661  -1.294836561100 Bohr   0.0
[INPUT] 15 C      0.023709000000  -2.637313000000   1.270167000000 AA    0.044803516687  -4.983799274755   2.400267762460 Bohr   0.0
[INPUT] 16 C     -0.025185000000  -2.512658000000  -1.263730000000 AA   -0.047592752447  -4.748235464697  -2.388103595397 Bohr   0.0
[INPUT] 17 C      0.057173000000  -3.767230000000   0.821599000000 AA    0.108041311720  -7.119032948245   1.552597094217 Bohr   0.0
[INPUT] 18 C     -0.178742000000  -3.376908000000  -0.803096000000 AA   -0.337773426957  -6.381431267853  -1.517631491734 Bohr   0.0
[INPUT] 19 C     -0.035147000000  -4.907934000000   1.079613000000 AA   -0.066418204100  -9.274651097441   2.040172890520 Bohr   0.0
[INPUT] 20 C     -0.015553000000  -4.870330000000  -1.437453000000 AA   -0.029390910415  -9.203589836253  -2.716392486934 Bohr   0.0
[INPUT] 21 C     -0.116500000000  -6.049544000000   0.668019000000 AA   -0.220153093512 -11.431981338506   1.262372956006 Bohr   0.0
[INPUT] 22 C      0.058268000000  -6.118885000000  -0.781567000000 AA    0.110110561826 -11.563016837709  -1.476947577998 Bohr   0.0
[INPUT] 23 H      0.101416000000   4.875720000000   2.650170000000 AA    0.191648464649   9.213775460064   5.008095483539 Bohr   0.0
[INPUT] 24 H      0.116440000000   2.507880000000   2.522655000000 AA    0.220039709944   4.739206353274   4.767127056765 Bohr   0.0
[INPUT] 25 H     -0.084419000000   5.026466000000  -2.460889000000 AA   -0.159528789710   9.498644114438  -4.650406232955 Bohr   0.0
[INPUT] 26 H      0.169440000000   2.348037000000  -2.587557000000 AA    0.320195194546   4.437146860345  -4.889774061701 Bohr   0.0
[INPUT] 27 H     -0.074110000000   7.169638000000  -1.096308000000 AA   -0.140047603092  13.548652232274  -2.071721868170 Bohr   0.0
[INPUT] 28 H     -0.027083000000   7.170441000000   1.136427000000 AA   -0.051179452632  13.550169682352   2.147535790561 Bohr   0.0
[INPUT] 29 H     -0.004232000000   0.135968000000   2.443901000000 AA   -0.007997320959   0.256942281705   4.618303565551 Bohr   0.0
[INPUT] 30 H     -0.183858000000  -0.014732000000  -2.421538000000 AA   -0.347441265810  -0.027839445267  -4.576043620227 Bohr   0.0
[INPUT] 31 H      0.037764000000  -2.427576000000   2.434634000000 AA    0.071363617368  -4.587453786567   4.600791473554 Bohr   0.0
[INPUT] 32 H      0.024972000000  -2.651511000000  -2.545504000000 AA    0.047190240783  -5.010629606272  -4.810305408985 Bohr   0.0
[INPUT] 33 H     -0.021698000000  -5.117047000000   2.459135000000 AA   -0.041003277451  -9.669817396527   4.647091653332 Bohr   0.0
[INPUT] 34 H      0.115407000000  -4.975200000000  -2.485421000000 AA    0.218087622858  -9.401765414936  -4.696764994243 Bohr   0.0
[INPUT] 35 H     -0.111205000000  -7.025346000000   1.264970000000 AA   -0.210146993682 -13.275979870309   2.390446855791 Bohr   0.0
[INPUT] 36 H      0.020479000000  -7.100329000000  -1.284386000000 AA    0.038699701305 -13.417677204307  -2.427137778226 Bohr   0.0
[INPUT] ---------------- BASIS SET ---------------- 
[INPUT] l, kappa, [nprim/nctr], expnt,             c_1 c_2 ...
[INPUT] H
[INPUT] 0    0    [3    /1   ]  3.42525091        0.15432897
                                0.62391373        0.53532814
                                0.1688554         0.44463454
[INPUT] C
[INPUT] 0    0    [3    /1   ]  71.616837         0.15432897
                                13.045096         0.53532814
                                3.5305122         0.44463454
[INPUT] 0    0    [3    /1   ]  2.9412494         -0.09996723
                                0.6834831         0.39951283
                                0.2222899         0.70011547
[INPUT] 1    0    [3    /1   ]  2.9412494         0.15591627
                                0.6834831         0.60768372
                                0.2222899         0.39195739

nuclear repulsion = 1507.3614478849
number of shells = 80
number of NR pGTOs = 372
number of NR cGTOs = 124
basis = sto3g
ecp = {}
CPU time:     49912.84
atom C rad-grids = 99, ang-grids = [ 50  50  50  50  50  50  50  50  50  50  50  50  50  50  50  50  50  50
  50  50  50  50  50  50  50  50  50  50  50  50  50  86  86  86  86  86
  86  86  86  86  86  86  86 434 434 434 434 434 434 434 434 434 590 590
 590 590 590 590 590 590 590 590 590 590 590 590 590 590 590 590 590 590
 590 590 590 590 590 590 590 434 434 434 434 434 434 434 434 434 434 434
 434 434 434 434 434 434 434 434 434]
atom H rad-grids = 99, ang-grids = [ 50  50  50  50  50  50  50  50  50  50  50  50  50  50  50  50  50  50
  50  50  50  50  50  50  50  50  50  50  86  86  86  86  86  86  86 434
 434 434 434 434 434 434 434 590 590 590 590 590 590 590 590 590 590 590
 590 590 590 590 590 590 590 590 590 590 590 590 590 590 590 434 434 434
 434 434 434 434 434 434 434 434 434 434 434 434 434 434 434 434 434 434
 434 434 434 434 434 434 434 434 434]
tot_boxes 5270, boxes in each direction [ 8 29 15]
Padding 0 grids
tot grids = 1157832


******** <class 'pyscf.dft.rks.RKS'> ********
method = RKS
initial guess = minao
damping factor = 0
level_shift factor = 0
DIIS = <class 'pyscf.scf.diis.CDIIS'>
diis_start_cycle = 1
diis_space = 8
SCF conv_tol = 1e-10
SCF conv_tol_grad = None
SCF max_cycles = 50
direct_scf = True
direct_scf_tol = 1e-13
chkfile to save SCF result = /home/saade/mlelec/tutorials/tmpymshsw25
max_memory 4000 MB (current use 690 MB)
XC library pyscf.dft.libxc version 6.1.0
    S. Lehtola, C. Steigemann, M. J.T. Oliveira, and M. A.L. Marques.,  SoftwareX 7, 1–5 (2018)
XC functionals = b3lypg
    P. J. Stephens, F. J. Devlin, C. F. Chabalowski, and M. J. Frisch.,  J. Phys. Chem. 98, 11623 (1994)
radial grids: 
    Treutler-Ahlrichs [JCP 102, 346 (1995); DOI:10.1063/1.469408] (M4) radial grids
    
becke partition: Becke, JCP 88, 2547 (1988); DOI:10.1063/1.454033
pruning grids: <function nwchem_prune at 0x7f9db5616ca0>
grids dens level: 3
symmetrized grids: False
atomic radii adjust function: <function treutler_atomic_radii_adjust at 0x7f9db5617380>
User specified grid scheme (99, 590)
small_rho_cutoff = 1e-07
Set gradient conv threshold to 1e-05
Initial guess from minao.
nelec by numeric integration = 145.27343921249948
    CPU time for vxc     37.19 sec, wall time     15.73 sec
E1 = -4113.588344075041  Ecoul = 1890.5372670589554  Exc = -126.24450313155863
init E= -841.93413226274
cond(S) = 49.63594466126615
    CPU time for initialize scf     47.03 sec, wall time     18.09 sec
  HOMO = -0.201524991201552  LUMO = -0.154601170831374
  mo_energy =
[-1.02256643e+01 -1.01957288e+01 -1.01586089e+01 -1.01516283e+01
 -1.01410930e+01 -1.01377799e+01 -1.01341349e+01 -1.01329044e+01
 -1.01246910e+01 -1.01186636e+01 -1.01151345e+01 -1.01077041e+01
 -1.01001837e+01 -1.00953522e+01 -1.00925208e+01 -1.00912291e+01
 -1.00828808e+01 -1.00803580e+01 -1.00780933e+01 -1.00773588e+01
 -1.00768691e+01 -1.00760737e+01 -1.13752968e+00 -1.09170724e+00
 -1.05073104e+00 -1.02921369e+00 -9.75074640e-01 -9.61376462e-01
 -9.37823166e-01 -8.98483977e-01 -8.68063429e-01 -8.45638361e-01
 -7.95365608e-01 -7.85429307e-01 -7.51781699e-01 -7.18847613e-01
 -6.87066561e-01 -6.67187211e-01 -6.45782612e-01 -6.40336961e-01
 -6.11115945e-01 -6.03101164e-01 -5.73067143e-01 -5.68426185e-01
 -5.39048616e-01 -5.30733872e-01 -5.20843193e-01 -5.12839043e-01
 -5.09221246e-01 -4.93283671e-01 -4.81967514e-01 -4.76461001e-01
 -4.65258693e-01 -4.58471197e-01 -4.56761719e-01 -4.42856053e-01
 -4.26940223e-01 -4.25938454e-01 -4.19547963e-01 -4.06375790e-01
 -3.88463767e-01 -3.77698834e-01 -3.64313947e-01 -3.53007280e-01
 -3.41168732e-01 -3.34380265e-01 -3.20596112e-01 -2.98924009e-01
 -2.77675014e-01 -2.72832713e-01 -2.51161432e-01 -2.36146001e-01
 -2.01524991e-01 -1.54601171e-01 -1.13589135e-01 -7.73718802e-02
 -4.39791663e-02 -1.37520839e-02 -3.08878318e-03  1.48351724e-02
  4.91873999e-02  5.47613228e-02  6.98322522e-02  8.80147707e-02
  9.66219529e-02  1.08950110e-01  1.25089407e-01  1.64576376e-01
  1.70109922e-01  1.72998954e-01  1.97252596e-01  2.09106632e-01
  2.21654955e-01  2.23884991e-01  2.26667417e-01  2.40472325e-01
  2.61290267e-01  2.70365611e-01  2.80943231e-01  2.84413073e-01
  3.13448333e-01  3.27333747e-01  3.64739590e-01  3.71863721e-01
  3.86603763e-01  4.11604031e-01  4.37218397e-01  4.45303697e-01
  4.62747892e-01  4.69070171e-01  4.95336945e-01  5.15239719e-01
  5.26057438e-01  5.77918196e-01  6.09217058e-01  6.20416157e-01
  6.55688549e-01  6.76380370e-01  7.56996899e-01  8.40738683e-01
  8.58903764e-01  9.02750425e-01  1.00674057e+00  1.25379834e+00]
nelec by numeric integration = 146.00000374083078
    CPU time for vxc     37.87 sec, wall time     15.79 sec
E1 = -4129.449829649093  Ecoul = 1911.8523044676251  Exc = -124.89434396707965
cycle= 1 E= -835.130421263643  delta_E=  6.8  |g|= 0.335  |ddm|= 9.46
    CPU time for cycle= 1     38.12 sec, wall time     15.84 sec
  HOMO = -0.0847434908589086  LUMO = -0.00675675185771354
  mo_energy =
[-1.00366037e+01 -1.00301358e+01 -1.00295549e+01 -1.00214798e+01
 -1.00203990e+01 -1.00080740e+01 -9.99835114e+00 -9.99084237e+00
 -9.98811142e+00 -9.98593837e+00 -9.98125725e+00 -9.97787850e+00
 -9.97741114e+00 -9.97507818e+00 -9.96963931e+00 -9.96568979e+00
 -9.94725447e+00 -9.94693622e+00 -9.93767381e+00 -9.93765535e+00
 -9.93239170e+00 -9.92680157e+00 -8.29017947e-01 -8.20077845e-01
 -7.84714970e-01 -7.67164486e-01 -7.56497611e-01 -7.30448681e-01
 -7.26840366e-01 -6.99269776e-01 -6.76644199e-01 -6.56344030e-01
 -6.36740612e-01 -6.13265558e-01 -5.79350658e-01 -5.61074304e-01
 -5.58233040e-01 -5.18544670e-01 -5.00418160e-01 -4.89398753e-01
 -4.76123436e-01 -4.64716637e-01 -4.54452791e-01 -4.39708617e-01
 -4.28218708e-01 -4.21357367e-01 -4.09272546e-01 -3.97671264e-01
 -3.86317469e-01 -3.68198289e-01 -3.61111785e-01 -3.51801514e-01
 -3.46499495e-01 -3.40145881e-01 -3.31393314e-01 -3.17873959e-01
 -3.12873912e-01 -3.03783232e-01 -2.93813247e-01 -2.88735227e-01
 -2.73748200e-01 -2.66968804e-01 -2.59950889e-01 -2.47644564e-01
 -2.33285160e-01 -2.21712208e-01 -2.19437220e-01 -1.90900948e-01
 -1.56235015e-01 -1.53698509e-01 -1.25534240e-01 -1.18196611e-01
 -8.47434909e-02 -6.75675186e-03  5.23074680e-02  7.46384627e-02
  1.03560050e-01  1.49986190e-01  1.59306454e-01  1.72695226e-01
  2.09346503e-01  2.20730522e-01  2.32955671e-01  2.52214398e-01
  2.71377782e-01  2.76946369e-01  2.98195311e-01  3.07991496e-01
  3.17030827e-01  3.35765824e-01  3.44979695e-01  3.51443691e-01
  3.76248192e-01  3.81971818e-01  3.91722035e-01  4.01214437e-01
  4.13299627e-01  4.30208056e-01  4.31627526e-01  4.54143491e-01
  4.62907079e-01  4.81272761e-01  5.05933100e-01  5.30202560e-01
  5.41889370e-01  5.54962839e-01  5.77401524e-01  6.01394690e-01
  6.16808222e-01  6.27165370e-01  6.36683184e-01  6.63343016e-01
  6.87914960e-01  7.33250682e-01  7.79444104e-01  8.05412481e-01
  8.38551106e-01  8.51250309e-01  9.57006392e-01  1.03071812e+00
  1.06179891e+00  1.08304279e+00  1.21137458e+00  1.51630227e+00]
nelec by numeric integration = 146.00000344512625
    CPU time for vxc     38.38 sec, wall time     15.93 sec
E1 = -4120.447716257146  Ecoul = 1902.6751083796253  Exc = -124.69538120306107
cycle= 2 E= -835.106541195677  delta_E= 0.0239  |g|= 0.423  |ddm|= 1.21
    CPU time for cycle= 2     39.01 sec, wall time     16.04 sec
  HOMO = -0.0972897221473487  LUMO = -0.0182078235520442
  mo_energy =
[-10.06442224 -10.04885807 -10.04808396 -10.04727354 -10.03367408
 -10.03010256 -10.02822246 -10.02730252 -10.02521805 -10.02359323
 -10.02353342 -10.02284308 -10.01967557 -10.01572669 -10.00492339
 -10.00460448 -10.00260386  -9.99759112  -9.98740778  -9.98386474
  -9.97956801  -9.94700562  -0.88678219  -0.84873356  -0.82727422
  -0.80773853  -0.77227185  -0.767015    -0.74319738  -0.71963544
  -0.69919646  -0.68181002  -0.64662934  -0.63117262  -0.60684504
  -0.59028675  -0.55957747  -0.53957164  -0.52737353  -0.51865063
  -0.50074904  -0.4915037   -0.46857661  -0.46538626  -0.43942697
  -0.43420805  -0.4208921   -0.41395848  -0.40586492  -0.39738949
  -0.38466273  -0.37472633  -0.37010652  -0.36348609  -0.3591525
  -0.3433856   -0.33723935  -0.33665175  -0.32072024  -0.31301075
  -0.30140536  -0.28010888  -0.27512457  -0.25791495  -0.25496148
  -0.23571197  -0.23190373  -0.20454861  -0.19039066  -0.17673852
  -0.15986126  -0.15226088  -0.09728972  -0.01820782   0.01761294
   0.05518787   0.09542236   0.11934127   0.13864785   0.15160031
   0.19109525   0.19339081   0.20689601   0.22569491   0.2375838
   0.25496265   0.26317498   0.29305507   0.30815308   0.31922955
   0.3369785    0.34976916   0.35504849   0.36459554   0.37160139
   0.38409086   0.39781422   0.4009781    0.40787631   0.42905341
   0.44432887   0.45248988   0.50087402   0.50886738   0.51569716
   0.53852038   0.57666143   0.58111986   0.60219698   0.60762626
   0.63039612   0.6538283    0.6711434    0.7217897    0.75526589
   0.76480314   0.80042655   0.8186256    0.90650168   0.98922758
   1.00611076   1.06417373   1.15511638   1.42131224]
nelec by numeric integration = 146.0000035707507
    CPU time for vxc     38.43 sec, wall time     15.96 sec
E1 = -4125.771778759277  Ecoul = 1908.0336887052742  Exc = -124.76781518769421
cycle= 3 E= -835.144457356793  delta_E= -0.0379  |g|= 0.279  |ddm|=  1.1
    CPU time for cycle= 3     38.85 sec, wall time     16.03 sec
  HOMO = -0.105820382936587  LUMO = -0.0274960117762594
  mo_energy =
[-10.05808068 -10.05541179 -10.04757815 -10.0440413  -10.0369318
 -10.03224635 -10.03164206 -10.02591245 -10.02462392 -10.02296322
 -10.01899385 -10.0181067  -10.01641938 -10.01599695 -10.0099121
 -10.0080477  -10.00676819 -10.00292869 -10.00277348  -9.99889482
  -9.99544854  -9.9942269   -0.8799584   -0.85465257  -0.82780969
  -0.81302886  -0.77468186  -0.76504505  -0.75070698  -0.72175604
  -0.70040523  -0.68030582  -0.64728905  -0.64156324  -0.61449191
  -0.58610622  -0.57024687  -0.54134464  -0.52593842  -0.5159848
  -0.50339059  -0.49122391  -0.46960902  -0.46494681  -0.44280159
  -0.43322875  -0.42490227  -0.41858708  -0.40297552  -0.39811836
  -0.39566591  -0.37504733  -0.37234441  -0.36736477  -0.35899149
  -0.34144494  -0.33742032  -0.3353586   -0.32371511  -0.31772244
  -0.30035317  -0.29084181  -0.28042264  -0.26001424  -0.25611451
  -0.24346467  -0.23936884  -0.20836099  -0.18953251  -0.17708495
  -0.1554149   -0.14778725  -0.10582038  -0.02749601   0.02019015
   0.05612575   0.08716793   0.1235419    0.13134463   0.15227952
   0.18729215   0.19265891   0.20837624   0.22549629   0.23928488
   0.25760361   0.26595626   0.28674849   0.30601393   0.31576243
   0.32210148   0.34456403   0.35917014   0.36364835   0.37357538
   0.37999923   0.38715826   0.40282962   0.41356976   0.42500739
   0.4462853    0.45426239   0.49765683   0.50758583   0.5189921
   0.53378079   0.56959749   0.58110633   0.59262133   0.61001378
   0.63074629   0.64612261   0.65367989   0.71603837   0.74971071
   0.77331397   0.79477967   0.81616624   0.90568164   0.98936177
   1.01096134   1.04262999   1.15354837   1.42788547]
nelec by numeric integration = 146.00000365500767
    CPU time for vxc     38.17 sec, wall time     15.89 sec
E1 = -4125.0347751839345  Ecoul = 1907.2754338516095  Exc = -124.77396927051487
cycle= 4 E= -835.171862717936  delta_E= -0.0274  |g|= 0.114  |ddm|= 0.689
    CPU time for cycle= 4     38.70 sec, wall time     15.97 sec
  HOMO = -0.10609679015363  LUMO = -0.0282498967618384
  mo_energy =
[-10.05496257 -10.05032542 -10.04265253 -10.03977882 -10.0365595
 -10.03133917 -10.02984051 -10.02722608 -10.02651222 -10.02621244
 -10.02574611 -10.02463534 -10.02322174 -10.01942933 -10.01858838
 -10.00916083 -10.00827802 -10.00722508 -10.00623186 -10.00283013
 -10.00172113  -9.99588409  -0.87851059  -0.85387865  -0.82700883
  -0.81378033  -0.77659034  -0.76669756  -0.75175417  -0.7244483
  -0.70363409  -0.68079767  -0.6470251   -0.64133056  -0.61305322
  -0.59010762  -0.57034458  -0.54053816  -0.52795106  -0.51530686
  -0.5055835   -0.49126784  -0.47184878  -0.46578625  -0.44278758
  -0.43512989  -0.42687777  -0.42020848  -0.4023391   -0.39762359
  -0.39467891  -0.37473852  -0.37252823  -0.36962789  -0.35965381
  -0.34272889  -0.33862752  -0.33503694  -0.32578883  -0.3191412
  -0.30131404  -0.29074935  -0.28173585  -0.26267248  -0.25917182
  -0.24434053  -0.24065038  -0.21123176  -0.19023846  -0.18078049
  -0.15665082  -0.14912106  -0.10609679  -0.0282499    0.01972789
   0.0524246    0.08491613   0.12431618   0.13103212   0.14922822
   0.18580343   0.19344886   0.20868826   0.2228095    0.23672084
   0.25803701   0.2633438    0.28594837   0.30706232   0.3145822
   0.32262385   0.34091415   0.35867782   0.36115409   0.37276956
   0.3794627    0.38667209   0.40174675   0.4106797    0.4258828
   0.4448982    0.45360009   0.49689309   0.507857     0.51852039
   0.53076489   0.56803519   0.57897657   0.59410615   0.6065344
   0.62634436   0.64363071   0.65736662   0.7148228    0.74772969
   0.77422074   0.79166269   0.81151812   0.90681228   0.98837913
   1.00762943   1.04745194   1.1557525    1.43081296]
nelec by numeric integration = 146.0000036206501
    CPU time for vxc     38.12 sec, wall time     15.97 sec
E1 = -4125.14991193079  Ecoul = 1907.3869595479332  Exc = -124.77492630808352
cycle= 5 E= -835.176430806036  delta_E= -0.00457  |g|= 0.0397  |ddm|= 0.243
    CPU time for cycle= 5     38.50 sec, wall time     16.03 sec
  HOMO = -0.105836728941716  LUMO = -0.0273763188191346
  mo_energy =
[-10.05703098 -10.0493862  -10.04331705 -10.04226703 -10.03380084
 -10.03136267 -10.02981219 -10.02626098 -10.02326588 -10.02206099
 -10.0220026  -10.02087596 -10.01973549 -10.0197303  -10.01935221
 -10.01165971 -10.01005747 -10.00717357 -10.00523715 -10.00270779
 -10.00047171  -9.99975651  -0.88052555  -0.85243023  -0.82711069
  -0.81265679  -0.77512761  -0.76673327  -0.75104735  -0.72323554
  -0.70280536  -0.68163659  -0.6461006   -0.64134649  -0.61459143
  -0.58865345  -0.56872918  -0.54104935  -0.5274821   -0.51637774
  -0.50449326  -0.4913922   -0.47127164  -0.46567199  -0.44266401
  -0.43453451  -0.42507774  -0.41938079  -0.40297177  -0.39835888
  -0.39454348  -0.37445104  -0.37253502  -0.36807421  -0.3609784
  -0.34299953  -0.33818802  -0.3359555   -0.32459723  -0.31818646
  -0.30226874  -0.2899445   -0.280823    -0.26172468  -0.25855794
  -0.24370698  -0.24017473  -0.21008174  -0.1905097   -0.18015338
  -0.1579518   -0.15056253  -0.10583673  -0.02737632   0.01829012
   0.05319107   0.0861804    0.12322821   0.13129665   0.14974594
   0.18683112   0.19290575   0.2082525    0.22336498   0.23770065
   0.25699836   0.26455603   0.28755196   0.30737087   0.31398459
   0.32372015   0.34362694   0.35761798   0.36279307   0.3722978
   0.37971125   0.38741908   0.40167292   0.40976781   0.42539483
   0.44501684   0.4524719    0.49815762   0.50583913   0.51741016
   0.53295791   0.56987154   0.57946618   0.59386773   0.60689894
   0.62814193   0.64542791   0.6566251    0.71614114   0.74926207
   0.77093102   0.79326534   0.81374405   0.90588058   0.98882003
   1.01045681   1.04792333   1.15625395   1.42813526]
nelec by numeric integration = 146.00000361528174
    CPU time for vxc     37.81 sec, wall time     15.79 sec
E1 = -4125.1699264393355  Ecoul = 1907.404079368756  Exc = -124.77252123761669
cycle= 6 E= -835.176920423292  delta_E= -0.00049  |g|= 0.0179  |ddm|= 0.0867
    CPU time for cycle= 6     38.21 sec, wall time     15.85 sec
  HOMO = -0.105512189374991  LUMO = -0.0268730115863355
  mo_energy =
[-10.05448055 -10.04952618 -10.04400676 -10.04044758 -10.03461267
 -10.02981063 -10.02710347 -10.02654896 -10.0243508  -10.02356609
 -10.02132021 -10.02118924 -10.02028798 -10.01967915 -10.0152423
 -10.01310374 -10.00812013 -10.00575741 -10.00315729 -10.00217881
 -10.00037382  -9.99798459  -0.87915178  -0.85265168  -0.82666658
  -0.8124918   -0.77506236  -0.76621502  -0.75053939  -0.72295638
  -0.70223853  -0.68094877  -0.64566903  -0.64089182  -0.61352737
  -0.58846861  -0.56882302  -0.540519    -0.52714937  -0.51577623
  -0.50423162  -0.49097311  -0.47083206  -0.46524704  -0.44221074
  -0.43423685  -0.42513793  -0.41913326  -0.40227574  -0.39764586
  -0.39418288  -0.37411871  -0.37228318  -0.36807431  -0.36005904
  -0.34249459  -0.33797951  -0.33527625  -0.32449599  -0.31797632
  -0.30144355  -0.28968053  -0.28064027  -0.26151798  -0.25825382
  -0.24338235  -0.23972203  -0.2097946   -0.19029977  -0.17959571
  -0.15711351  -0.14974857  -0.10551219  -0.02687301   0.01934121
   0.05371992   0.08644044   0.12372696   0.13180928   0.15014148
   0.18710348   0.19326655   0.2087005    0.22391507   0.23789213
   0.25783533   0.26461828   0.28738405   0.30767559   0.31463564
   0.32410769   0.34351262   0.35855821   0.36273037   0.37303453
   0.38017364   0.38788067   0.40213913   0.41072931   0.42598615
   0.44538399   0.45333003   0.49825001   0.5070454    0.51819578
   0.53276669   0.56989468   0.57971587   0.59441552   0.60743129
   0.6282391    0.6457154    0.65726412   0.71630057   0.74930929
   0.7729766    0.79372282   0.81374619   0.90660038   0.98904916
   1.00991788   1.04789847   1.15589707   1.43007762]
nelec by numeric integration = 146.00000361613777
    CPU time for vxc     38.76 sec, wall time     16.05 sec
E1 = -4125.122692097559  Ecoul = 1907.3557293538372  Exc = -124.77152176177417
cycle= 7 E= -835.177036620592  delta_E= -0.000116  |g|= 0.00293  |ddm|= 0.0293
    CPU time for cycle= 7     39.24 sec, wall time     16.12 sec
  HOMO = -0.105447829740566  LUMO = -0.0267115836379155
  mo_energy =
[-10.05502375 -10.04921156 -10.04365057 -10.04092875 -10.0341032
 -10.02993772 -10.02783188 -10.02629466 -10.02434517 -10.02336541
 -10.02133506 -10.02041578 -10.02038628 -10.01970377 -10.01504686
 -10.01237913 -10.00827617 -10.00568135 -10.00297239 -10.00252372
 -10.0000786   -9.99755399  -0.87929577  -0.85240289  -0.82665073
  -0.81242803  -0.77490654  -0.76617733  -0.75049467  -0.72286721
  -0.70223416  -0.68084437  -0.6456135   -0.64080742  -0.61350481
  -0.58844731  -0.56866084  -0.54042932  -0.52709096  -0.51575747
  -0.5041965   -0.49090042  -0.47083786  -0.46515967  -0.44219926
  -0.4342261   -0.42506681  -0.4191145   -0.40226224  -0.39763601
  -0.39414703  -0.37404363  -0.37223344  -0.36796222  -0.36005037
  -0.34243256  -0.33788837  -0.33527901  -0.32444135  -0.31789885
  -0.30141841  -0.2896416   -0.28050641  -0.26145193  -0.25817632
  -0.24328795  -0.23966691  -0.20969439  -0.19016203  -0.17956147
  -0.15705954  -0.14971292  -0.10544783  -0.02671158   0.01941182
   0.05375651   0.08657425   0.12377586   0.13186928   0.15024801
   0.1871926    0.19337817   0.20875278   0.22391286   0.23794766
   0.25782837   0.26470247   0.28739626   0.3078399    0.31464378
   0.32411603   0.34345658   0.35851713   0.36291436   0.37303145
   0.38023      0.38787962   0.4021123    0.41070837   0.42611464
   0.4453934    0.45336216   0.49842611   0.50708393   0.51821943
   0.53289402   0.57005859   0.57984548   0.59452486   0.6075483
   0.62831484   0.64569299   0.65743503   0.71642258   0.74941784
   0.77286604   0.79370229   0.81385967   0.90678523   0.98909755
   1.00997016   1.04816253   1.15600094   1.42974062]
nelec by numeric integration = 146.00000361727444
    CPU time for vxc     38.75 sec, wall time     16.07 sec
E1 = -4125.118506886085  Ecoul = 1907.3514911194454  Exc = -124.77147130735999
cycle= 8 E= -835.177039189095  delta_E= -2.57e-06  |g|= 0.00114  |ddm|= 0.00549
    CPU time for cycle= 8     39.34 sec, wall time     16.16 sec
  HOMO = -0.105534694466752  LUMO = -0.0267526091354887
  mo_energy =
[-10.05499518 -10.04937087 -10.04354178 -10.04085614 -10.03431948
 -10.02980371 -10.02757824 -10.02640899 -10.0242414  -10.02338524
 -10.02138108 -10.02059031 -10.02031109 -10.01978846 -10.01503986
 -10.0127198  -10.00835771 -10.00572072 -10.00309846 -10.00241282
 -10.00001883  -9.99769926  -0.87923786  -0.85249634  -0.82661877
  -0.81244764  -0.77498181  -0.76612362  -0.75053901  -0.72290185
  -0.70224073  -0.68083865  -0.64564849  -0.64084138  -0.61351261
  -0.58843901  -0.56876039  -0.5404474   -0.52710022  -0.51570653
  -0.50420597  -0.49091622  -0.47081719  -0.46519707  -0.44222222
  -0.4342398   -0.42514291  -0.41914044  -0.40226942  -0.39764064
  -0.39417909  -0.37407417  -0.37224061  -0.36803334  -0.36002532
  -0.34243141  -0.33792289  -0.33524919  -0.32444846  -0.31792478
  -0.30140515  -0.28967572  -0.2805733   -0.26144415  -0.25815742
  -0.24333062  -0.23968035  -0.20973698  -0.19015146  -0.17956146
  -0.15703338  -0.14966187  -0.10553469  -0.02675261   0.01942456
   0.05375074   0.08650745   0.12384486   0.13184446   0.15024219
   0.18714817   0.19337579   0.20875311   0.22393938   0.23796164
   0.25786154   0.26466815   0.28734206   0.3077825    0.31470423
   0.32406624   0.34342652   0.35856607   0.3628517    0.37305078
   0.38020767   0.38785327   0.40212279   0.41076863   0.42607662
   0.44539077   0.45338711   0.49832276   0.50707394   0.51821976
   0.5328013    0.56996316   0.57984426   0.59446171   0.60754068
   0.62828536   0.6456711    0.65734977   0.71636985   0.74939942
   0.7728636    0.79369431   0.81380924   0.90670922   0.98918028
   1.00998707   1.0480437    1.15608715   1.42978837]
nelec by numeric integration = 146.00000361736264
    CPU time for vxc     38.25 sec, wall time     15.88 sec
E1 = -4125.120179126917  Ecoul = 1907.353230631947  Exc = -124.77153901225097
cycle= 9 E= -835.177039622316  delta_E= -4.33e-07  |g|= 0.000441  |ddm|= 0.00229
    CPU time for cycle= 9     38.76 sec, wall time     15.96 sec
  HOMO = -0.10554285310998  LUMO = -0.026751116281841
  mo_energy =
[-10.05494958 -10.04936043 -10.04364837 -10.04082174 -10.03430898
 -10.02990995 -10.02768375 -10.02639881 -10.02429902 -10.02341077
 -10.02137122 -10.02063648 -10.02035093 -10.01977885 -10.01508119
 -10.01268562 -10.00833168 -10.00576546 -10.00308144 -10.00245013
 -10.00009441  -9.99767404  -0.87925451  -0.85250088  -0.82664452
  -0.81246044  -0.77498738  -0.76616523  -0.7505489   -0.72291903
  -0.70226413  -0.68085653  -0.64565762  -0.64085278  -0.61352583
  -0.5884649   -0.56875289  -0.54045569  -0.52711498  -0.51573168
  -0.50422926  -0.49092548  -0.47084544  -0.46520027  -0.44222188
  -0.43424907  -0.42513664  -0.41914576  -0.4022784   -0.39765148
  -0.39418235  -0.37407862  -0.37225195  -0.36803424  -0.36003766
  -0.34243856  -0.3379304   -0.33526372  -0.32446316  -0.31793381
  -0.30141709  -0.28967941  -0.2805773   -0.26146717  -0.2581875
  -0.24333777  -0.23969568  -0.20974925  -0.19017115  -0.17958485
  -0.15705561  -0.1496879   -0.10554285  -0.02675112   0.01940034
   0.05372868   0.08650141   0.12382645   0.13183011   0.15021989
   0.18713727   0.19337015   0.20874908   0.22390993   0.23793724
   0.2578429    0.26465187   0.2873482    0.30777473   0.31466748
   0.32406546   0.34343065   0.35854094   0.36284967   0.37303608
   0.3802015    0.38784504   0.40211247   0.41073866   0.42606764
   0.44538054   0.45336736   0.49833134   0.50707192   0.51820895
   0.53280115   0.56996366   0.57982254   0.59446123   0.60752224
   0.6282722    0.64565667   0.6573517    0.71635509   0.74937129
   0.77286239   0.79366903   0.81379027   0.90669759   0.98911684
   1.00995782   1.0480478    1.15602297   1.42981329]
nelec by numeric integration = 146.000003617348
    CPU time for vxc     38.20 sec, wall time     15.82 sec
E1 = -4125.122018710201  Ecoul = 1907.355102411966  Exc = -124.7715712793819
cycle= 10 E= -835.177039692712  delta_E= -7.04e-08  |g|= 0.000156  |ddm|= 0.000837
    CPU time for cycle= 10     38.73 sec, wall time     15.90 sec
  HOMO = -0.105543562317055  LUMO = -0.0267514877670285
  mo_energy =
[-10.05497759 -10.04935122 -10.04363844 -10.04085668 -10.03429717
 -10.02988337 -10.02766613 -10.02639575 -10.02429548 -10.02342321
 -10.02138371 -10.0206176  -10.02036425 -10.01979181 -10.01509077
 -10.01268897 -10.00834028 -10.00575421 -10.00307666 -10.00246446
 -10.00009035  -9.99771085  -0.87926611  -0.85249911  -0.82664981
  -0.81246445  -0.77498689  -0.76616614  -0.75054956  -0.72291757
  -0.70226392  -0.68086459  -0.64565993  -0.64085047  -0.61352799
  -0.58846639  -0.56874862  -0.5404587   -0.52711752  -0.51573841
  -0.50422638  -0.49092808  -0.47084378  -0.46520429  -0.44222522
  -0.43425015  -0.42513359  -0.41914769  -0.40228271  -0.39765568
  -0.39418043  -0.37407975  -0.37225393  -0.36803306  -0.36004359
  -0.34244748  -0.3379324   -0.33527275  -0.32446563  -0.3179354
  -0.301425    -0.28967793  -0.2805766   -0.26146747  -0.25818864
  -0.24333712  -0.23969532  -0.20974864  -0.1901768   -0.17958546
  -0.15706402  -0.14969514  -0.10554356  -0.02675149   0.01939697
   0.05372633   0.08650161   0.12381351   0.13182901   0.15021572
   0.18713699   0.19336139   0.20874089   0.22391075   0.2379339
   0.25783541   0.26465258   0.28735204   0.30777609   0.31466519
   0.32407043   0.34343102   0.35853384   0.36284959   0.37303031
   0.38020009   0.38784794   0.40210868   0.41073649   0.42606766
   0.4453777    0.45336146   0.49833257   0.50706658   0.51820481
   0.53280475   0.56996618   0.57981578   0.59446233   0.60751462
   0.6282676    0.64565711   0.65735481   0.71635709   0.74937231
   0.77285195   0.79366999   0.81379024   0.90669874   0.98912217
   1.00995169   1.04805291   1.15602565   1.42978729]
nelec by numeric integration = 146.00000361729855
    CPU time for vxc     38.45 sec, wall time     16.02 sec
E1 = -4125.12212457042  Ecoul = 1907.3552104192486  Exc = -124.77157343476347
cycle= 11 E= -835.177039701031  delta_E= -8.32e-09  |g|= 6.77e-05  |ddm|= 0.000309
    CPU time for cycle= 11     38.81 sec, wall time     16.08 sec
  HOMO = -0.105542675839651  LUMO = -0.0267483675599585
  mo_energy =
[-10.05497198 -10.04935152 -10.04363104 -10.04084873 -10.03430028
 -10.02988853 -10.02766694 -10.02639573 -10.02429321 -10.02341636
 -10.02137815 -10.02062026 -10.02035873 -10.01978544 -10.01509112
 -10.01269023 -10.00834253 -10.00574805 -10.00307317 -10.00244923
 -10.00008979  -9.99768695  -0.87926212  -0.8524983   -0.82664648
  -0.81246217  -0.77498581  -0.76616353  -0.75054704  -0.72291668
  -0.70226174  -0.68085914  -0.64565788  -0.64084783  -0.61352625
  -0.58846394  -0.56874766  -0.540457    -0.52711556  -0.5157358
  -0.50422416  -0.49092719  -0.47084214  -0.4652027   -0.44222271
  -0.43424832  -0.42513219  -0.41914501  -0.4022809   -0.39765403
  -0.39417893  -0.37407875  -0.37225264  -0.36803174  -0.36004277
  -0.34244354  -0.33793028  -0.33526903  -0.32446383  -0.31793338
  -0.30142137  -0.28967496  -0.28057528  -0.26146523  -0.25818633
  -0.24333521  -0.23969303  -0.20974648  -0.1901755   -0.17958264
  -0.15706027  -0.14969362  -0.10554268  -0.02674837   0.01939998
   0.05372901   0.08650365   0.12381584   0.13183171   0.15021954
   0.18713923   0.19336336   0.20874312   0.22391138   0.23793567
   0.25783808   0.26465365   0.2873534    0.30777697   0.31466667
   0.32407382   0.34343523   0.35853712   0.36285008   0.37303266
   0.38020091   0.38785043   0.40211138   0.4107358    0.42606817
   0.44538066   0.45336414   0.49833362   0.50706666   0.51820623
   0.53280603   0.56996796   0.57982122   0.59446332   0.60751973
   0.62827178   0.64566107   0.65735553   0.71635918   0.74937555
   0.77285399   0.79367381   0.81379208   0.90669793   0.98912421
   1.0099549    1.04805245   1.15602921   1.42979301]
nelec by numeric integration = 146.00000361729667
    CPU time for vxc     37.90 sec, wall time     15.83 sec
E1 = -4125.12186699751  Ecoul = 1907.3549428598837  Exc = -124.77156344986984
cycle= 12 E= -835.177039702591  delta_E= -1.56e-09  |g|= 2.33e-05  |ddm|= 0.00013
    CPU time for cycle= 12     38.36 sec, wall time     15.90 sec
  HOMO = -0.105541002250577  LUMO = -0.0267464148136521
  mo_energy =
[-10.05496901 -10.04934826 -10.04363414 -10.04084532 -10.03429979
 -10.02988911 -10.02766866 -10.02638963 -10.02429303 -10.02341349
 -10.02137708 -10.02061803 -10.02035635 -10.01978615 -10.01508704
 -10.01268949 -10.00833507 -10.00574989 -10.00306728 -10.00245076
 -10.00008464  -9.99769511  -0.87926102  -0.85249588  -0.82664565
  -0.81246007  -0.77498439  -0.76616344  -0.75054603  -0.72291546
  -0.70226134  -0.6808596   -0.64565673  -0.6408466   -0.61352481
  -0.58846349  -0.56874643  -0.54045568  -0.52711481  -0.51573512
  -0.50422429  -0.49092536  -0.47084199  -0.46520128  -0.44222203
  -0.43424818  -0.42513201  -0.41914465  -0.40227951  -0.39765252
  -0.39417787  -0.3740773   -0.37225147  -0.36803082  -0.36004122
  -0.34244351  -0.33792959  -0.33526858  -0.3244623   -0.31793212
  -0.30142108  -0.28967473  -0.28057375  -0.26146484  -0.25818589
  -0.24333396  -0.23969212  -0.20974553  -0.1901737   -0.17958196
  -0.15706017  -0.14969268  -0.105541    -0.02674641   0.01940075
   0.05372937   0.08650453   0.12381698   0.13183258   0.15021978
   0.18714026   0.19336463   0.2087439    0.22391235   0.23793708
   0.25783926   0.26465461   0.28735328   0.30777912   0.31466743
   0.32407358   0.34343431   0.35853764   0.36285153   0.37303353
   0.38020219   0.38785077   0.40211138   0.4107368    0.42607043
   0.44538053   0.45336493   0.49833489   0.50706869   0.51820695
   0.53280615   0.56996903   0.57982081   0.59446544   0.60751962
   0.62827156   0.64566082   0.65735828   0.71636014   0.74937565
   0.77285594   0.79367372   0.81379305   0.90670121   0.98912388
   1.00995711   1.04805613   1.15602861   1.42979522]
nelec by numeric integration = 146.0000036172879
    CPU time for vxc     38.15 sec, wall time     15.85 sec
E1 = -4125.121789894801  Ecoul = 1907.3548637624895  Exc = -124.77156145523087
cycle= 13 E= -835.177039702638  delta_E= -4.64e-11  |g|= 2.19e-05  |ddm|= 6.54e-05
    CPU time for cycle= 13     38.79 sec, wall time     15.96 sec
  HOMO = -0.105542341544961  LUMO = -0.0267476214621648
  mo_energy =
[-10.05497031 -10.04935035 -10.04363372 -10.04084693 -10.03429985
 -10.02988805 -10.02766724 -10.02639281 -10.0242933  -10.02341611
 -10.02137849 -10.02061932 -10.02035839 -10.01978596 -10.01508844
 -10.01268954 -10.00833768 -10.00574965 -10.00307225 -10.00245204
 -10.00008812  -9.99769259  -0.87926152  -0.85249733  -0.82664629
  -0.81246136  -0.7749853   -0.76616362  -0.75054693  -0.72291622
  -0.70226181  -0.68085977  -0.64565756  -0.64084779  -0.61352567
  -0.58846391  -0.56874736  -0.54045641  -0.52711539  -0.51573539
  -0.50422454  -0.49092627  -0.47084218  -0.46520204  -0.44222264
  -0.43424853  -0.42513248  -0.41914527  -0.40228024  -0.39765331
  -0.39417872  -0.37407818  -0.37225224  -0.36803155  -0.36004171
  -0.34244368  -0.3379301   -0.33526891  -0.32446322  -0.31793295
  -0.30142133  -0.28967542  -0.28057468  -0.26146528  -0.2581863
  -0.24333483  -0.23969282  -0.20974625  -0.19017443  -0.17958246
  -0.1570603   -0.14969283  -0.10554234  -0.02674762   0.01940024
   0.0537289    0.08650372   0.12381683   0.13183176   0.15021926
   0.18713943   0.19336412   0.20874355   0.22391193   0.23793632
   0.25783871   0.26465394   0.28735287   0.30777792   0.3146672
   0.32407283   0.34343411   0.35853734   0.36285082   0.3730331
   0.38020161   0.38785018   0.40211106   0.41073682   0.42606928
   0.44538001   0.45336445   0.49833394   0.50706801   0.51820663
   0.53280576   0.56996805   0.57982042   0.59446415   0.60751919
   0.62827115   0.64566028   0.65735663   0.71635924   0.74937506
   0.77285515   0.79367315   0.81379229   0.90669973   0.98912387
   1.0099556    1.04805409   1.15602854   1.42979429]
nelec by numeric integration = 146.00000361729684
    CPU time for vxc     38.30 sec, wall time     15.85 sec
E1 = -4125.121841876694  Ecoul = 1907.354918128172  Exc = -124.77156383918604
cycle= 14 E= -835.177039702804  delta_E= -1.66e-10  |g|= 5.14e-06  |ddm|= 3.89e-05
    CPU time for cycle= 14     38.73 sec, wall time     15.92 sec
  HOMO = -0.105542518501616  LUMO = -0.0267476956182926
  mo_energy =
[-10.05497043 -10.04935065 -10.04363369 -10.04084711 -10.03430047
 -10.02988858 -10.0276677  -10.02639351 -10.02429359 -10.02341669
 -10.02137794 -10.02061967 -10.02035887 -10.01978674 -10.01508786
 -10.0126906  -10.0083386  -10.00574968 -10.00307131 -10.00245187
 -10.00008769  -9.99769212  -0.8792616   -0.85249772  -0.8266463
  -0.81246165  -0.77498567  -0.76616369  -0.75054715  -0.72291652
  -0.70226202  -0.68085962  -0.64565774  -0.64084776  -0.61352563
  -0.58846417  -0.56874759  -0.5404565   -0.52711548  -0.51573548
  -0.50422472  -0.49092646  -0.47084235  -0.46520221  -0.44222268
  -0.43424855  -0.42513267  -0.41914532  -0.40228038  -0.39765343
  -0.39417882  -0.37407829  -0.37225229  -0.36803183  -0.36004179
  -0.34244366  -0.3379303   -0.33526888  -0.3244635   -0.31793317
  -0.30142134  -0.28967542  -0.28057499  -0.26146536  -0.25818638
  -0.24333501  -0.23969292  -0.20974643  -0.19017462  -0.17958261
  -0.15706027  -0.1496929   -0.10554252  -0.0267477    0.01940026
   0.05372871   0.08650351   0.12381675   0.13183167   0.15021924
   0.18713916   0.193364     0.20874343   0.22391168   0.23793604
   0.25783866   0.2646536    0.2873527    0.30777766   0.31466707
   0.3240729    0.34343398   0.35853729   0.36285054   0.37303301
   0.38020141   0.38785013   0.40211119   0.41073667   0.42606912
   0.44538022   0.45336451   0.49833377   0.50706798   0.51820661
   0.53280545   0.56996782   0.57982054   0.59446406   0.60751924
   0.62827099   0.64566014   0.65735651   0.71635902   0.74937491
   0.77285515   0.79367298   0.81379188   0.90669932   0.98912376
   1.00995513   1.0480537    1.15602845   1.42979423]
nelec by numeric integration = 146.00000361729712
    CPU time for vxc     38.03 sec, wall time     15.87 sec
E1 = -4125.12186970802  Ecoul = 1907.3549462695023  Exc = -124.77156414919706
cycle= 15 E= -835.177039702811  delta_E= -7.28e-12  |g|= 3.11e-06  |ddm|= 1.25e-05
    CPU time for cycle= 15     38.47 sec, wall time     15.94 sec
  HOMO = -0.105542404930956  LUMO = -0.0267475634079606
  mo_energy =
[-10.05497088 -10.04935003 -10.04363367 -10.04084743 -10.03429958
 -10.02988854 -10.02766783 -10.02639238 -10.02429322 -10.02341554
 -10.02137858 -10.02061942 -10.02035812 -10.01978564 -10.01509036
 -10.01268943 -10.00833828 -10.00574988 -10.00307222 -10.00245168
 -10.00008805  -9.997693    -0.87926197  -0.85249716  -0.82664648
  -0.81246132  -0.77498523  -0.7661638   -0.75054698  -0.72291625
  -0.70226194  -0.68085998  -0.64565763  -0.64084776  -0.61352597
  -0.58846396  -0.56874715  -0.54045654  -0.52711549  -0.51573563
  -0.50422456  -0.49092638  -0.47084228  -0.46520216  -0.44222268
  -0.43424861  -0.42513233  -0.41914529  -0.40228045  -0.39765354
  -0.39417867  -0.37407821  -0.37225231  -0.36803146  -0.360042
  -0.34244384  -0.33793013  -0.33526916  -0.32446317  -0.3179329
  -0.30142157  -0.28967532  -0.28057464  -0.26146531  -0.25818639
  -0.24333482  -0.23969287  -0.20974623  -0.19017456  -0.17958257
  -0.15706061  -0.14969316  -0.1055424   -0.02674756   0.0193999
   0.05372877   0.08650376   0.12381657   0.1318317    0.15021916
   0.18713945   0.19336399   0.20874344   0.22391181   0.23793627
   0.25783841   0.26465394   0.2873531    0.30777793   0.31466694
   0.32407299   0.34343441   0.35853703   0.3628509    0.37303289
   0.38020155   0.3878502    0.4021109    0.41073649   0.42606915
   0.44537992   0.45336416   0.49833401   0.5070676    0.51820635
   0.53280587   0.56996819   0.57982034   0.59446408   0.60751907
   0.62827119   0.64566037   0.6573566    0.71635929   0.74937507
   0.77285448   0.79367316   0.81379231   0.90669949   0.98912371
   1.00995579   1.04805431   1.15602848   1.42979378]
nelec by numeric integration = 146.00000361729536
    CPU time for vxc     38.05 sec, wall time     15.82 sec
E1 = -4125.1218590648095  Ecoul = 1907.3549353301669  Exc = -124.77156385305284
Extra cycle  E= -835.177039702791  delta_E= 2e-11  |g|= 7.11e-06  |ddm|= 1.59e-05
    CPU time for scf_cycle    666.15 sec, wall time    273.67 sec
    CPU time for SCF    666.16 sec, wall time    273.67 sec
converged SCF energy = -835.177039702791
nelec by numeric integration = 146.00000361729536
    CPU time for vxc     38.27 sec, wall time     15.89 sec
 ** Mulliken pop  **
pop of  0 C 1s            1.99078
pop of  0 C 2s            1.13201
pop of  0 C 2px           0.98227
pop of  0 C 2py           0.94610
pop of  0 C 2pz           0.92918
pop of  1 C 1s            1.99071
pop of  1 C 2s            1.05493
pop of  1 C 2px           1.03087
pop of  1 C 2py           1.00246
pop of  1 C 2pz           0.96293
pop of  2 C 1s            1.99119
pop of  2 C 2s            1.19554
pop of  2 C 2px           1.00424
pop of  2 C 2py           0.91032
pop of  2 C 2pz           0.94679
pop of  3 C 1s            1.99102
pop of  3 C 2s            1.16610
pop of  3 C 2px           0.98370
pop of  3 C 2py           0.94388
pop of  3 C 2pz           0.98480
pop of  4 C 1s            1.99142
pop of  4 C 2s            1.21223
pop of  4 C 2px           0.98101
pop of  4 C 2py           0.90499
pop of  4 C 2pz           0.98772
pop of  5 C 1s            1.99126
pop of  5 C 2s            1.08272
pop of  5 C 2px           1.00291
pop of  5 C 2py           0.98397
pop of  5 C 2pz           0.99459
pop of  6 C 1s            1.99116
pop of  6 C 2s            1.17338
pop of  6 C 2px           1.00257
pop of  6 C 2py           0.95547
pop of  6 C 2pz           0.96637
pop of  7 C 1s            1.99122
pop of  7 C 2s            1.18906
pop of  7 C 2px           0.97313
pop of  7 C 2py           0.94519
pop of  7 C 2pz           0.97263
pop of  8 C 1s            1.99102
pop of  8 C 2s            1.08641
pop of  8 C 2px           0.99702
pop of  8 C 2py           0.99417
pop of  8 C 2pz           0.95690
pop of  9 C 1s            1.99128
pop of  9 C 2s            1.11361
pop of  9 C 2px           0.98391
pop of  9 C 2py           0.97295
pop of  9 C 2pz           0.92589
pop of  10 C 1s           1.99111
pop of  10 C 2s           1.06125
pop of  10 C 2px          1.01740
pop of  10 C 2py          0.98861
pop of  10 C 2pz          0.99957
pop of  11 C 1s           1.99080
pop of  11 C 2s           1.11200
pop of  11 C 2px          1.02682
pop of  11 C 2py          0.97456
pop of  11 C 2pz          1.00612
pop of  12 C 1s           1.99117
pop of  12 C 2s           1.14291
pop of  12 C 2px          1.00306
pop of  12 C 2py          0.93590
pop of  12 C 2pz          0.90673
pop of  13 C 1s           1.99119
pop of  13 C 2s           1.17569
pop of  13 C 2px          0.92260
pop of  13 C 2py          0.90221
pop of  13 C 2pz          0.96645
pop of  14 C 1s           1.99105
pop of  14 C 2s           1.07951
pop of  14 C 2px          0.98874
pop of  14 C 2py          0.95539
pop of  14 C 2pz          1.00992
pop of  15 C 1s           1.99246
pop of  15 C 2s           1.01338
pop of  15 C 2px          1.03059
pop of  15 C 2py          1.07286
pop of  15 C 2pz          1.03584
pop of  16 C 1s           1.99128
pop of  16 C 2s           0.98291
pop of  16 C 2px          1.03806
pop of  16 C 2py          1.05442
pop of  16 C 2pz          0.95842
pop of  17 C 1s           1.99333
pop of  17 C 2s           1.05110
pop of  17 C 2px          0.98422
pop of  17 C 2py          1.00260
pop of  17 C 2pz          0.96689
pop of  18 C 1s           1.99164
pop of  18 C 2s           0.99257
pop of  18 C 2px          1.03309
pop of  18 C 2py          1.04936
pop of  18 C 2pz          0.98608
pop of  19 C 1s           1.99135
pop of  19 C 2s           1.21825
pop of  19 C 2px          0.97317
pop of  19 C 2py          0.91098
pop of  19 C 2pz          0.96693
pop of  20 C 1s           1.99087
pop of  20 C 2s           1.11935
pop of  20 C 2px          0.97593
pop of  20 C 2py          1.00557
pop of  20 C 2pz          0.96807
pop of  21 C 1s           1.99095
pop of  21 C 2s           1.18085
pop of  21 C 2px          0.99830
pop of  21 C 2py          0.96442
pop of  21 C 2pz          0.94509
pop of  22 H 1s           0.91564
pop of  23 H 1s           0.90336
pop of  24 H 1s           0.90341
pop of  25 H 1s           0.93483
pop of  26 H 1s           0.91467
pop of  27 H 1s           0.94354
pop of  28 H 1s           0.96465
pop of  29 H 1s           0.91865
pop of  30 H 1s           0.95390
pop of  31 H 1s           0.91810
pop of  32 H 1s           0.96865
pop of  33 H 1s           0.92884
pop of  34 H 1s           0.91423
pop of  35 H 1s           0.91965
 ** Mulliken atomic charges  **
charge of    0C =      0.01965
charge of    1C =     -0.04189
charge of    2C =     -0.04807
charge of    3C =     -0.06949
charge of    4C =     -0.07737
charge of    5C =     -0.05546
charge of    6C =     -0.08894
charge of    7C =     -0.07122
charge of    8C =     -0.02552
charge of    9C =      0.01237
charge of   10C =     -0.05794
charge of   11C =     -0.11029
charge of   12C =      0.02022
charge of   13C =      0.04186
charge of   14C =     -0.02461
charge of   15C =     -0.14513
charge of   16C =     -0.02508
charge of   17C =      0.00186
charge of   18C =     -0.05274
charge of   19C =     -0.06068
charge of   20C =     -0.05979
charge of   21C =     -0.07962
charge of   22H =      0.08436
charge of   23H =      0.09664
charge of   24H =      0.09659
charge of   25H =      0.06517
charge of   26H =      0.08533
charge of   27H =      0.05646
charge of   28H =      0.03535
charge of   29H =      0.08135
charge of   30H =      0.04610
charge of   31H =      0.08190
charge of   32H =      0.03135
charge of   33H =      0.07116
charge of   34H =      0.08577
charge of   35H =      0.08035
Dipole moment(X, Y, Z, Debye):  0.08563,  0.62328, -0.04767
nelec by numeric integration = 146.00000361729536
    CPU time for vxc     38.31 sec, wall time     15.88 sec
E1 = -4125.1218590648095  Ecoul = 1907.3549353301667  Exc = -124.77156385305285
nelec by numeric integration = 146.00000361729536
    CPU time for vxc     38.26 sec, wall time     15.95 sec
E1 = -4125.1218590648095  Ecoul = 1907.3549353301662  Exc = -124.77156385305285
