System: uname_result(system='Linux', node='cosmopc18', release='5.15.0-97-generic', version='#107-Ubuntu SMP Wed Feb 7 13:26:48 UTC 2024', machine='x86_64')  Threads 4
Python 3.11.8 (main, Feb 26 2024, 21:39:34) [GCC 11.2.0]
numpy 1.26.4  scipy 1.11.4
Date: Tue Apr  9 15:48:17 2024
PySCF version 2.3.0
PySCF path  /home/saade/miniconda3/envs/tutorial/lib/python3.11/site-packages/pyscf

[ENV] PYSCFAD_BACKEND torch
[CONFIG] conf_file None
[INPUT] verbose = 5
[INPUT] max_memory = 4000 
[INPUT] num. atoms = 36
[INPUT] num. electrons = 146
[INPUT] charge = 0
[INPUT] spin (= nelec alpha-beta = 2S) = 0
[INPUT] symmetry False subgroup None
[INPUT] Mole.unit = angstrom
[INPUT] Symbol           X                Y                Z      unit          X                Y                Z       unit  Magmom
[INPUT]  1 C      0.062829000000   3.797762000000   0.807320000000 AA    0.118729602680   7.176730066280   1.525613694884 Bohr   0.0
[INPUT]  2 C      0.040898000000   3.931155000000  -0.699590000000 AA    0.077286019042   7.428806303215  -1.322033499484 Bohr   0.0
[INPUT]  3 C     -0.012297000000   5.100670000000   1.381476000000 AA   -0.023237962154   9.638869351785   2.610611287660 Bohr   0.0
[INPUT]  4 C      0.006421000000   2.321101000000   1.340290000000 AA    0.012133931446   4.386245197454   2.532781027493 Bohr   0.0
[INPUT]  5 C     -0.054180000000   4.883663000000  -1.334124000000 AA   -0.102385361429   9.228785554672  -2.521128976209 Bohr   0.0
[INPUT]  6 C      0.187589000000   2.432471000000  -1.309528000000 AA    0.354491833981   4.596703995947  -2.474649272449 Bohr   0.0
[INPUT]  7 C      0.054778000000   5.912773000000  -0.543236000000 AA    0.103515417651  11.173521606723  -1.026567261004 Bohr   0.0
[INPUT]  8 C     -0.048841000000   6.076370000000   0.729253000000 AA   -0.092296113650  11.482675131523   1.378088445517 Bohr   0.0
[INPUT]  9 C     -0.037452000000   1.299061000000   0.711782000000 AA   -0.070774022817   2.454869509104   1.345073040395 Bohr   0.0
[INPUT] 10 C     -0.013388000000   1.145046000000  -0.738390000000 AA   -0.025299653356   2.163823340029  -1.395354873118 Bohr   0.0
[INPUT] 11 C     -0.068714000000  -0.096744000000   1.320333000000 AA   -0.129850640923  -0.182819664195   2.495067763225 Bohr   0.0
[INPUT] 12 C      0.031206000000   0.153688000000  -1.544006000000 AA    0.058970793443   0.290428228632  -2.917748474685 Bohr   0.0
[INPUT] 13 C      0.122024000000  -1.514204000000   0.755800000000 AA    0.230591940624  -2.861430856721   1.428255004946 Bohr   0.0
[INPUT] 14 C      0.146864000000  -1.182027000000  -0.680280000000 AA    0.277532737558  -2.233707301841  -1.285542888019 Bohr   0.0
[INPUT] 15 C     -0.068759000000  -2.420753000000   1.379593000000 AA   -0.129935678599  -4.574560185219   2.607052933367 Bohr   0.0
[INPUT] 16 C      0.109848000000  -2.303537000000  -1.348351000000 AA    0.207582635331  -4.353054047802  -2.548014109783 Bohr   0.0
[INPUT] 17 C     -0.077238000000  -3.759280000000   0.765330000000 AA   -0.145958666409  -7.104009625555   1.446264094913 Bohr   0.0
[INPUT] 18 C      0.051468000000  -3.520651000000  -0.651098000000 AA    0.097260424179  -6.653066170176  -1.230396900252 Bohr   0.0
[INPUT] 19 C     -0.070961000000  -5.095298000000   1.256328000000 AA   -0.134096855525  -9.628717743044   2.374115842623 Bohr   0.0
[INPUT] 20 C      0.006766000000  -4.999654000000  -1.534404000000 AA    0.012785886959  -9.447976777586  -2.899603324437 Bohr   0.0
[INPUT] 21 C      0.093313000000  -6.056774000000   0.811067000000 AA    0.176336013862 -11.445644058386   1.532694498673 Bohr   0.0
[INPUT] 22 C     -0.064045000000  -6.073997000000  -0.745070000000 AA   -0.121027509648 -11.478190811430  -1.407978243630 Bohr   0.0
[INPUT] 23 H      0.067284000000   5.023301000000   2.400969000000 AA    0.127148332565   9.492663131254   4.537173843571 Bohr   0.0
[INPUT] 24 H      0.150197000000   2.461986000000   2.480124000000 AA    0.283831194731   4.652479262513   4.686755114961 Bohr   0.0
[INPUT] 25 H      0.184628000000   4.985267000000  -2.529043000000 AA    0.348896354926   9.420789287832  -4.779198627248 Bohr   0.0
[INPUT] 26 H     -0.114367000000   2.308626000000  -2.298657000000 AA   -0.216122307688   4.362670864050  -4.343832184314 Bohr   0.0
[INPUT] 27 H      0.014820000000   7.127506000000  -1.136118000000 AA    0.028005741166  13.469034291194  -2.146951865189 Bohr   0.0
[INPUT] 28 H      0.100790000000   7.044771000000   1.264669000000 AA    0.190465496095  13.312687800278   2.389878048228 Bohr   0.0
[INPUT] 29 H      0.098202000000  -0.063603000000   2.379342000000 AA    0.185574884885  -0.120192250701   4.496304736675 Bohr   0.0
[INPUT] 30 H     -0.040271000000  -0.111246000000  -2.658594000000 AA   -0.076101160762  -0.210224472453  -5.024014536412 Bohr   0.0
[INPUT] 31 H      0.079266000000  -2.445921000000   2.572590000000 AA    0.149791030990  -4.622120812322   4.861490530795 Bohr   0.0
[INPUT] 32 H     -0.016830000000  -2.388785000000  -2.332697000000 AA   -0.031804090676  -4.514149420469  -4.408158461595 Bohr   0.0
[INPUT] 33 H      0.043464000000  -4.972112000000   2.581611000000 AA    0.082135056278  -9.395929940663   4.878537750165 Bohr   0.0
[INPUT] 34 H      0.058938000000  -4.900102000000  -2.473343000000 AA    0.111376678330  -9.259850762434  -4.673940882110 Bohr   0.0
[INPUT] 35 H     -0.125655000000  -7.086690000000   1.342918000000 AA   -0.237453536182 -13.391903229694   2.537747227749 Bohr   0.0
[INPUT] 36 H      0.020305000000  -6.932535000000  -1.211834000000 AA    0.038370888959 -13.100592498962  -2.290034368436 Bohr   0.0
[INPUT] ---------------- BASIS SET ---------------- 
[INPUT] l, kappa, [nprim/nctr], expnt,             c_1 c_2 ...
[INPUT] H
[INPUT] 0    0    [3    /1   ]  3.42525091        0.15432897
                                0.62391373        0.53532814
                                0.1688554         0.44463454
[INPUT] C
[INPUT] 0    0    [3    /1   ]  71.616837         0.15432897
                                13.045096         0.53532814
                                3.5305122         0.44463454
[INPUT] 0    0    [3    /1   ]  2.9412494         -0.09996723
                                0.6834831         0.39951283
                                0.2222899         0.70011547
[INPUT] 1    0    [3    /1   ]  2.9412494         0.15591627
                                0.6834831         0.60768372
                                0.2222899         0.39195739

nuclear repulsion = 1506.68512680106
number of shells = 80
number of NR pGTOs = 372
number of NR cGTOs = 124
basis = sto3g
ecp = {}
CPU time:     53590.37
atom C rad-grids = 99, ang-grids = [ 50  50  50  50  50  50  50  50  50  50  50  50  50  50  50  50  50  50
  50  50  50  50  50  50  50  50  50  50  50  50  50  86  86  86  86  86
  86  86  86  86  86  86  86 434 434 434 434 434 434 434 434 434 590 590
 590 590 590 590 590 590 590 590 590 590 590 590 590 590 590 590 590 590
 590 590 590 590 590 590 590 434 434 434 434 434 434 434 434 434 434 434
 434 434 434 434 434 434 434 434 434]
atom H rad-grids = 99, ang-grids = [ 50  50  50  50  50  50  50  50  50  50  50  50  50  50  50  50  50  50
  50  50  50  50  50  50  50  50  50  50  86  86  86  86  86  86  86 434
 434 434 434 434 434 434 434 590 590 590 590 590 590 590 590 590 590 590
 590 590 590 590 590 590 590 590 590 590 590 590 590 590 590 434 434 434
 434 434 434 434 434 434 434 434 434 434 434 434 434 434 434 434 434 434
 434 434 434 434 434 434 434 434 434]
tot_boxes 4743, boxes in each direction [ 7 29 15]
Padding 0 grids
tot grids = 1157832


******** <class 'pyscf.dft.rks.RKS'> ********
method = RKS
initial guess = minao
damping factor = 0
level_shift factor = 0
DIIS = <class 'pyscf.scf.diis.CDIIS'>
diis_start_cycle = 1
diis_space = 8
SCF conv_tol = 1e-10
SCF conv_tol_grad = None
SCF max_cycles = 50
direct_scf = True
direct_scf_tol = 1e-13
chkfile to save SCF result = /home/saade/mlelec/tutorials/tmpnj8thmzo
max_memory 4000 MB (current use 638 MB)
XC library pyscf.dft.libxc version 6.1.0
    S. Lehtola, C. Steigemann, M. J.T. Oliveira, and M. A.L. Marques.,  SoftwareX 7, 1–5 (2018)
XC functionals = b3lypg
    P. J. Stephens, F. J. Devlin, C. F. Chabalowski, and M. J. Frisch.,  J. Phys. Chem. 98, 11623 (1994)
radial grids: 
    Treutler-Ahlrichs [JCP 102, 346 (1995); DOI:10.1063/1.469408] (M4) radial grids
    
becke partition: Becke, JCP 88, 2547 (1988); DOI:10.1063/1.454033
pruning grids: <function nwchem_prune at 0x7f9db5616ca0>
grids dens level: 3
symmetrized grids: False
atomic radii adjust function: <function treutler_atomic_radii_adjust at 0x7f9db5617380>
User specified grid scheme (99, 590)
small_rho_cutoff = 1e-07
Set gradient conv threshold to 1e-05
Initial guess from minao.
nelec by numeric integration = 145.27265445767037
    CPU time for vxc     37.10 sec, wall time     15.52 sec
E1 = -4112.293331468569  Ecoul = 1889.7601350501834  Exc = -126.38721709785368
init E= -842.235286715183
cond(S) = 34.90461600357345
    CPU time for initialize scf     46.56 sec, wall time     17.82 sec
  HOMO = -0.190658759801602  LUMO = -0.165142580302143
  mo_energy =
[-1.01585006e+01 -1.01554766e+01 -1.01476188e+01 -1.01474280e+01
 -1.01467549e+01 -1.01427603e+01 -1.01345017e+01 -1.01302174e+01
 -1.01285978e+01 -1.01221831e+01 -1.01219880e+01 -1.01172221e+01
 -1.01044659e+01 -1.01027701e+01 -1.01017141e+01 -1.00918420e+01
 -1.00913948e+01 -1.00903586e+01 -1.00869657e+01 -1.00831993e+01
 -1.00803482e+01 -1.00767833e+01 -1.13257954e+00 -1.10779311e+00
 -1.06016062e+00 -1.03918280e+00 -9.84563859e-01 -9.66817749e-01
 -9.31269678e-01 -8.96341973e-01 -8.85922847e-01 -8.53973009e-01
 -7.84948031e-01 -7.73633628e-01 -7.20523778e-01 -7.10724587e-01
 -6.91588378e-01 -6.74624437e-01 -6.69570573e-01 -6.59171606e-01
 -6.06563476e-01 -5.96494960e-01 -5.77424123e-01 -5.52614344e-01
 -5.37460456e-01 -5.33857208e-01 -5.17035459e-01 -5.12222869e-01
 -5.04960882e-01 -4.98886872e-01 -4.89745203e-01 -4.83882665e-01
 -4.79162806e-01 -4.72126772e-01 -4.69705877e-01 -4.54070529e-01
 -4.42284583e-01 -4.27807223e-01 -4.16878098e-01 -4.01751278e-01
 -3.81007314e-01 -3.71461816e-01 -3.69813669e-01 -3.46695896e-01
 -3.38280004e-01 -3.30994613e-01 -3.21603587e-01 -3.15841656e-01
 -3.01120625e-01 -2.93412359e-01 -2.82220544e-01 -2.69106291e-01
 -1.90658760e-01 -1.65142580e-01 -8.00935528e-02 -7.08556504e-02
 -3.87061290e-02 -1.70981946e-02  8.37311167e-03  2.32191302e-02
  5.09792981e-02  6.39153955e-02  7.19490215e-02  9.17709407e-02
  9.88911419e-02  1.17470788e-01  1.35113442e-01  1.63698605e-01
  1.69750402e-01  1.77301662e-01  1.91247807e-01  2.15728060e-01
  2.39836191e-01  2.46358159e-01  2.54459803e-01  2.59329323e-01
  2.79686761e-01  2.90316272e-01  3.32770705e-01  3.38664544e-01
  3.51490704e-01  3.57741614e-01  3.61795628e-01  3.85613035e-01
  4.02426590e-01  4.30703732e-01  4.41079932e-01  4.52813680e-01
  4.61109521e-01  4.81430314e-01  5.02508694e-01  5.29477137e-01
  5.50018225e-01  5.93849729e-01  5.97884926e-01  6.52067536e-01
  6.79719839e-01  7.10365921e-01  7.43352955e-01  8.07390811e-01
  8.50601311e-01  9.17908224e-01  9.59390903e-01  1.05768184e+00]
nelec by numeric integration = 145.99999643212973
    CPU time for vxc     37.92 sec, wall time     15.67 sec
E1 = -4127.031110982531  Ecoul = 1910.0598389963918  Exc = -125.02230748841463
cycle= 1 E= -835.308452673497  delta_E= 6.93  |g|= 0.323  |ddm|=  9.4
    CPU time for cycle= 1     38.33 sec, wall time     15.74 sec
  HOMO = -0.0674222012037001  LUMO = 0.0025396623679512
  mo_energy =
[-1.00446473e+01 -1.00329235e+01 -1.00303364e+01 -1.00194055e+01
 -1.00120401e+01 -1.00076328e+01 -1.00076166e+01 -1.00028149e+01
 -9.99569365e+00 -9.99370703e+00 -9.99178442e+00 -9.99142976e+00
 -9.99045571e+00 -9.98903426e+00 -9.98690178e+00 -9.98122973e+00
 -9.97673035e+00 -9.97624946e+00 -9.96118347e+00 -9.94523670e+00
 -9.94349417e+00 -9.83872382e+00 -8.74179329e-01 -8.48060802e-01
 -8.11498217e-01 -7.90756023e-01 -7.65853360e-01 -7.42758819e-01
 -7.19369283e-01 -7.06591726e-01 -6.87975032e-01 -6.78854023e-01
 -6.22331506e-01 -5.94063761e-01 -5.73669736e-01 -5.60014441e-01
 -5.50930488e-01 -5.41852377e-01 -5.26933493e-01 -5.16413128e-01
 -4.84749036e-01 -4.77135636e-01 -4.55150609e-01 -4.38184726e-01
 -4.26108848e-01 -4.23748097e-01 -4.08912914e-01 -4.05752026e-01
 -3.93092688e-01 -3.89869535e-01 -3.79352072e-01 -3.67551265e-01
 -3.66601070e-01 -3.60431536e-01 -3.56241241e-01 -3.43073672e-01
 -3.22019527e-01 -3.05005036e-01 -3.01557981e-01 -2.89177365e-01
 -2.73994457e-01 -2.61006018e-01 -2.54336513e-01 -2.50271164e-01
 -2.41731294e-01 -2.18133621e-01 -2.15403999e-01 -2.03336772e-01
 -1.96020859e-01 -1.92696562e-01 -1.64546518e-01 -1.59094557e-01
 -6.74222012e-02  2.53966237e-03  6.94221100e-02  8.36702365e-02
  1.08341050e-01  1.46846487e-01  1.68523188e-01  1.85535651e-01
  1.95535490e-01  2.08059986e-01  2.18334171e-01  2.46674107e-01
  2.52323411e-01  2.78656172e-01  2.93386639e-01  3.12324709e-01
  3.23446526e-01  3.34220784e-01  3.54100112e-01  3.74372515e-01
  3.80406601e-01  3.85432750e-01  4.02565584e-01  4.18374950e-01
  4.27473769e-01  4.52933193e-01  4.71428220e-01  4.85910492e-01
  4.99346303e-01  5.04588314e-01  5.17757579e-01  5.47797700e-01
  5.52053658e-01  5.55677322e-01  5.98661960e-01  6.05442686e-01
  6.18165693e-01  6.53125603e-01  6.68424164e-01  6.91081925e-01
  7.24713494e-01  7.48888875e-01  7.62207849e-01  7.97283714e-01
  8.45325939e-01  8.93822370e-01  9.08004345e-01  9.79899561e-01
  1.01891084e+00  1.10075202e+00  1.13621092e+00  1.23651866e+00]
nelec by numeric integration = 145.9999965147341
    CPU time for vxc     37.78 sec, wall time     15.66 sec
E1 = -4122.00707355281  Ecoul = 1905.0468290041476  Exc = -124.87913654382513
cycle= 2 E= -835.154254291431  delta_E= 0.154  |g|= 0.655  |ddm|= 1.76
    CPU time for cycle= 2     38.22 sec, wall time     15.73 sec
  HOMO = -0.0807603742503181  LUMO = -0.0102558368863458
  mo_energy =
[-10.03067968 -10.02788851 -10.02366059 -10.02259235 -10.01798139
 -10.01728138 -10.01535955 -10.01440605 -10.01284536 -10.00727174
 -10.00649221 -10.0062433  -10.0056004   -9.99810717  -9.99726048
  -9.99564007  -9.9932531   -9.98615433  -9.98551872  -9.98021235
  -9.9768004   -9.91415314  -0.89046261  -0.84313757  -0.82149772
  -0.80569529  -0.78496372  -0.7522813   -0.73064632  -0.70975839
  -0.69670381  -0.67975592  -0.63449315  -0.60456893  -0.57806326
  -0.56883942  -0.55975786  -0.5418819   -0.53927099  -0.52848536
  -0.49128709  -0.48072583  -0.46714079  -0.44540621  -0.43057556
  -0.42570925  -0.42075199  -0.40217365  -0.401305    -0.39535858
  -0.38476011  -0.38212519  -0.38083891  -0.36336403  -0.35933315
  -0.35482265  -0.33179859  -0.31999421  -0.3082571   -0.2960063
  -0.27472182  -0.27455835  -0.26594612  -0.25524756  -0.24232834
  -0.23529787  -0.23007109  -0.21807807  -0.20332244  -0.19026231
  -0.17513735  -0.16703894  -0.08076037  -0.01025584   0.06631184
   0.07080026   0.10800842   0.12711673   0.16152159   0.17376933
   0.19268101   0.19329204   0.22628106   0.2405284    0.24967648
   0.27146654   0.28584905   0.29622116   0.3090386    0.32149593
   0.33941939   0.36048236   0.38173604   0.39198008   0.39637914
   0.40713867   0.41817717   0.44090288   0.46649324   0.49514328
   0.50161549   0.50619173   0.52404624   0.53456891   0.5472998
   0.55656011   0.5750435    0.60381131   0.62113107   0.62275123
   0.65699446   0.68113579   0.69318333   0.74042092   0.74449133
   0.79304193   0.83454251   0.85965246   0.88961608   0.97615306
   1.01014852   1.06695636   1.14890639   1.22685382]
nelec by numeric integration = 145.99999654089214
    CPU time for vxc     39.31 sec, wall time     16.12 sec
E1 = -4122.407531638978  Ecoul = 1905.3924680999717  Exc = -124.89905687201602
cycle= 3 E= -835.228993609966  delta_E= -0.0747  |g|= 0.513  |ddm|= 2.19
    CPU time for cycle= 3     39.73 sec, wall time     16.19 sec
  HOMO = -0.0859230763375277  LUMO = -0.0359613219680083
  mo_energy =
[-10.04014573 -10.04013138 -10.03731019 -10.03611688 -10.03214699
 -10.02960313 -10.02931099 -10.02726985 -10.02091398 -10.01915366
 -10.01903765 -10.01825306 -10.01233861 -10.00923194 -10.00669003
 -10.00609887 -10.00071563 -10.0005749   -9.99912299  -9.99706864
  -9.99570993  -9.98742823  -0.89262014  -0.86359837  -0.83258245
  -0.8208019   -0.78931928  -0.76725365  -0.74243938  -0.71688616
  -0.70856635  -0.68561414  -0.63347643  -0.62514546  -0.58605632
  -0.57899452  -0.5647348   -0.55421318  -0.5457838   -0.53486532
  -0.49757348  -0.49011929  -0.46980967  -0.45278176  -0.43763119
  -0.43433445  -0.42488211  -0.41535563  -0.40897734  -0.40545305
  -0.39181505  -0.38661146  -0.38373831  -0.37947658  -0.37168152
  -0.36021544  -0.34185124  -0.3304515   -0.32095727  -0.31022189
  -0.28392134  -0.2800715   -0.27131064  -0.26529109  -0.24933736
  -0.24484536  -0.23763109  -0.22763391  -0.21507761  -0.20091099
  -0.18373843  -0.17257961  -0.08592308  -0.03596132   0.05843156
   0.06395045   0.09975251   0.12266352   0.15140414   0.16477245
   0.18378084   0.19691311   0.20617354   0.22909699   0.2385174
   0.2597828    0.27603898   0.29755056   0.30599321   0.31370439
   0.33239115   0.35416895   0.37559961   0.38295357   0.39500705
   0.40126823   0.41263768   0.42656199   0.47281032   0.47604545
   0.48801457   0.49228834   0.49881491   0.5213976    0.53869092
   0.55157762   0.575003     0.58974391   0.60731858   0.62129876
   0.6445266    0.67069626   0.68604762   0.73555113   0.73876103
   0.78654134   0.8235768    0.85441329   0.88621825   0.95309514
   0.99923213   1.06414185   1.11272081   1.21087527]
nelec by numeric integration = 145.99999649356786
    CPU time for vxc     39.12 sec, wall time     16.00 sec
E1 = -4123.722351478109  Ecoul = 1906.5866725542896  Exc = -124.89941676386306
cycle= 4 E= -835.349968886626  delta_E= -0.121  |g|= 0.0696  |ddm|= 1.12
    CPU time for cycle= 4     39.39 sec, wall time     16.05 sec
  HOMO = -0.084434549890533  LUMO = -0.0313100362403052
  mo_energy =
[-10.04599634 -10.03885119 -10.03808983 -10.03548121 -10.03507068
 -10.03338249 -10.03256645 -10.03016708 -10.02727731 -10.02678294
 -10.02591122 -10.02318321 -10.01939257 -10.01804146 -10.01687933
 -10.01429152 -10.0111854  -10.00798736 -10.00791151 -10.00378448
  -9.99246816  -9.96912445  -0.89796135  -0.86691417  -0.83649731
  -0.81884425  -0.79350791  -0.76747563  -0.74362711  -0.72061874
  -0.71129773  -0.69234937  -0.63419034  -0.62427985  -0.59017415
  -0.58145709  -0.56648349  -0.55408745  -0.54614206  -0.53894236
  -0.49955383  -0.49397631  -0.47210702  -0.45589019  -0.43890365
  -0.43727248  -0.42576171  -0.41816243  -0.40945306  -0.40780898
  -0.39466468  -0.38971731  -0.38542595  -0.38104567  -0.37451396
  -0.36199279  -0.34441975  -0.33107854  -0.32166611  -0.30984498
  -0.28736571  -0.28310833  -0.27230297  -0.26800774  -0.25181716
  -0.24543721  -0.23890412  -0.2282859   -0.22000507  -0.20633404
  -0.18668656  -0.17940419  -0.08443455  -0.03131004   0.0533002
   0.05951612   0.09387527   0.12029717   0.14840483   0.16472276
   0.18012336   0.19685929   0.20530892   0.22970482   0.2361674
   0.25804742   0.27255921   0.29688956   0.30282763   0.31148472
   0.32953929   0.35314661   0.37124988   0.38060246   0.38875828
   0.40133615   0.41146743   0.42356858   0.47033054   0.47636175
   0.48609809   0.49512971   0.50076347   0.5205826    0.53518606
   0.54928351   0.57018295   0.58796906   0.60065953   0.62228506
   0.64508156   0.67250369   0.6835593    0.72854499   0.7338258
   0.78043395   0.8200534    0.85664761   0.88026901   0.95493881
   0.99310115   1.06234836   1.11200503   1.20312693]
nelec by numeric integration = 145.9999965068722
    CPU time for vxc     37.93 sec, wall time     15.71 sec
E1 = -4123.86023138475  Ecoul = 1906.7313757798993  Exc = -124.90671065697977
cycle= 5 E= -835.350439460774  delta_E= -0.000471  |g|= 0.0579  |ddm|= 0.191
    CPU time for cycle= 5     38.37 sec, wall time     15.78 sec
  HOMO = -0.0887990358310034  LUMO = -0.0335795218192673
  mo_energy =
[-10.03913906 -10.03852088 -10.03493114 -10.03449101 -10.03280271
 -10.03105299 -10.02713219 -10.02676524 -10.02666624 -10.0247922
 -10.0223821  -10.02147622 -10.01996825 -10.01554498 -10.01402746
 -10.01226519 -10.0100454  -10.00738525 -10.00426923 -10.00344937
 -10.0029117   -9.98081871  -0.89494183  -0.86559535  -0.83422417
  -0.82000122  -0.79099446  -0.76781961  -0.74342185  -0.71971703
  -0.71104725  -0.68962839  -0.63485091  -0.62525546  -0.58862293
  -0.58060205  -0.56576437  -0.55479468  -0.54626806  -0.53748414
  -0.49876246  -0.49211094  -0.4714615   -0.45444978  -0.43878067
  -0.43587405  -0.42514811  -0.41705289  -0.4097302   -0.40687554
  -0.39340781  -0.38826406  -0.38526577  -0.38088212  -0.37361098
  -0.36157238  -0.34334937  -0.33093463  -0.32199451  -0.31076561
  -0.2865532   -0.28166485  -0.27268044  -0.26702676  -0.25138713
  -0.24599224  -0.23908856  -0.22897111  -0.21893738  -0.20498761
  -0.18678829  -0.17701622  -0.08879904  -0.03357952   0.0545897
   0.06086056   0.09544116   0.12083601   0.14930113   0.16449556
   0.18161475   0.19695879   0.20543003   0.22943656   0.23643612
   0.25839212   0.27333066   0.29739928   0.30416702   0.31176657
   0.33065335   0.35289851   0.37326164   0.38253276   0.39156576
   0.40043052   0.4124698    0.42494038   0.47128665   0.47545981
   0.48709714   0.49207655   0.49809556   0.52029163   0.53696745
   0.54989023   0.57209564   0.5884924    0.60245884   0.62106953
   0.64459005   0.67075859   0.68349109   0.73085067   0.73626876
   0.78210787   0.82078595   0.85434544   0.88326084   0.95527384
   0.99638168   1.06356208   1.1128132    1.20787054]
nelec by numeric integration = 145.99999649216758
    CPU time for vxc     37.93 sec, wall time     15.68 sec
E1 = -4123.835614652959  Ecoul = 1906.7018148057623  Exc = -124.9029762559991
cycle= 6 E= -835.351649302139  delta_E= -0.00121  |g|= 0.0153  |ddm|= 0.103
    CPU time for cycle= 6     38.32 sec, wall time     15.74 sec
  HOMO = -0.0879214605591248  LUMO = -0.0323610342259758
  mo_energy =
[-10.03966448 -10.03843968 -10.03526285 -10.03504423 -10.03301692
 -10.03138519 -10.02738775 -10.02672718 -10.0254115  -10.02472561
 -10.02326415 -10.02000559 -10.01990464 -10.01703398 -10.01298418
 -10.01115867 -10.00918918 -10.00659888 -10.00388296 -10.00171419
  -9.99935832  -9.97796435  -0.89510093  -0.86508018  -0.83404024
  -0.81989317  -0.79115813  -0.76746252  -0.74318716  -0.71925212
  -0.71023266  -0.68936698  -0.63418113  -0.6246951   -0.58831484
  -0.58030923  -0.56545425  -0.5542459   -0.54611711  -0.53725799
  -0.49850335  -0.49205404  -0.47117242  -0.45431922  -0.43828237
  -0.43584478  -0.42513758  -0.41686052  -0.40930716  -0.40673948
  -0.39325738  -0.38826332  -0.38487251  -0.38050397  -0.37321326
  -0.36120002  -0.34318263  -0.33071977  -0.32161498  -0.3103103
  -0.28605883  -0.28168489  -0.27226513  -0.26723024  -0.25095115
  -0.24549048  -0.23872234  -0.22851463  -0.21838244  -0.20444265
  -0.18612718  -0.17662958  -0.08792146  -0.03236103   0.0552874
   0.06112888   0.09600272   0.12109014   0.14970734   0.16466302
   0.18180349   0.19682735   0.20579228   0.22960224   0.23697941
   0.25862624   0.27381856   0.29732122   0.30445049   0.31217416
   0.33071849   0.35345797   0.37346029   0.38224379   0.39197476
   0.4009172    0.4123229    0.4251234    0.47176246   0.47620814
   0.48788809   0.49312062   0.49885325   0.52095087   0.53698508
   0.55025404   0.57243711   0.58896687   0.60318013   0.62158786
   0.6448006    0.67144359   0.68405402   0.73141447   0.73623129
   0.78272059   0.82138243   0.85484062   0.88292699   0.95464756
   0.99620337   1.06333296   1.1130296    1.20773168]
nelec by numeric integration = 145.99999649723466
    CPU time for vxc     37.92 sec, wall time     15.73 sec
E1 = -4123.802379279659  Ecoul = 1906.6681735826353  Exc = -124.90264092661936
cycle= 7 E= -835.351719822587  delta_E= -7.05e-05  |g|= 0.00564  |ddm|= 0.0219
    CPU time for cycle= 7     38.35 sec, wall time     15.80 sec
  HOMO = -0.0878932446286196  LUMO = -0.0323325303197854
  mo_energy =
[-10.04012005 -10.0385418  -10.0351555  -10.03471882 -10.03326812
 -10.031546   -10.02728193 -10.0267834  -10.0253767  -10.02457192
 -10.02272827 -10.02013871 -10.01959923 -10.01670092 -10.01349362
 -10.0106121  -10.00909957 -10.00614915 -10.00382513 -10.00150279
  -9.99932628  -9.97850311  -0.89507972  -0.86506641  -0.83408826
  -0.81983874  -0.79118555  -0.76734263  -0.74309737  -0.71915772
  -0.71020716  -0.68937582  -0.63419027  -0.62462821  -0.58829946
  -0.58029973  -0.5654087   -0.55417375  -0.54610292  -0.5372278
  -0.49851299  -0.49205527  -0.47111001  -0.4543015   -0.43825706
  -0.43581136  -0.42515883  -0.41682691  -0.40926947  -0.40668386
  -0.39324584  -0.38823985  -0.38482396  -0.3804739   -0.37319522
  -0.36127207  -0.34318101  -0.3307553   -0.3215497   -0.31023216
  -0.2860027   -0.2816979   -0.27217433  -0.26712088  -0.25092538
  -0.2454202   -0.23878005  -0.22844694  -0.21831533  -0.20434941
  -0.18610274  -0.17662416  -0.08789324  -0.03233253   0.05533324
   0.06113511   0.09611001   0.12116151   0.14974068   0.16467331
   0.18179525   0.19687022   0.20583638   0.22965767   0.23710145
   0.25871315   0.27389285   0.29733714   0.3044661    0.31221606
   0.33073727   0.35356122   0.3734701    0.3822593    0.39192952
   0.40088859   0.41236495   0.42512313   0.47168454   0.47626099
   0.48789856   0.49320431   0.49887776   0.52088187   0.5369739
   0.55033485   0.57228865   0.58896425   0.60327115   0.62159822
   0.64490774   0.67150678   0.68414466   0.73147049   0.73620819
   0.78282207   0.82146677   0.8550272    0.88307125   0.95480742
   0.99617046   1.06336927   1.11296749   1.20750928]
nelec by numeric integration = 145.99999649727923
    CPU time for vxc     38.39 sec, wall time     15.85 sec
E1 = -4123.800457521662  Ecoul = 1906.6661526793805  Exc = -124.90254897660284
cycle= 8 E= -835.351727017828  delta_E= -7.2e-06  |g|= 0.00357  |ddm|= 0.00519
    CPU time for cycle= 8     38.86 sec, wall time     15.93 sec
  HOMO = -0.0878956677051348  LUMO = -0.0323168235661438
  mo_energy =
[-10.04009304 -10.03842655 -10.0352649  -10.03463678 -10.03328152
 -10.03137878 -10.02729628 -10.02688317 -10.02532383 -10.02465298
 -10.02290496 -10.02013829 -10.01978093 -10.01656706 -10.0133789
 -10.01103272 -10.00911451 -10.00614506 -10.00394318 -10.00149538
  -9.99915242  -9.97853986  -0.89514602  -0.86503497  -0.83408348
  -0.8198307   -0.79123803  -0.7673788   -0.74312245  -0.71917343
  -0.71018271  -0.68937595  -0.63421297  -0.62461784  -0.58831531
  -0.58032222  -0.56543304  -0.55416941  -0.54610894  -0.53725215
  -0.49850681  -0.49205455  -0.47115024  -0.45432454  -0.43826848
  -0.43580974  -0.42518985  -0.4167818   -0.40927107  -0.40669775
  -0.39326472  -0.38828781  -0.38487985  -0.3804456   -0.37318152
  -0.36128025  -0.3431792   -0.33072341  -0.32156132  -0.31023493
  -0.28599063  -0.28172673  -0.27220289  -0.26715442  -0.25088624
  -0.24542998  -0.23879737  -0.22845762  -0.21829507  -0.20434431
  -0.18611103  -0.17662685  -0.08789567  -0.03231682   0.05531052
   0.06113148   0.09611813   0.12111248   0.14973484   0.16465873
   0.18185111   0.19684491   0.20585885   0.22967358   0.23707851
   0.2586999    0.27388      0.29730185   0.30445624   0.31216529
   0.3307188    0.35348217   0.37347613   0.38230156   0.39194794
   0.40087371   0.41237371   0.42513036   0.47168264   0.47631373
   0.48794238   0.4932789    0.49888933   0.52089095   0.53693754
   0.55032335   0.57228121   0.58897584   0.60326222   0.62154582
   0.64489233   0.67149068   0.68410872   0.73144853   0.73615585
   0.78279441   0.8214259    0.85489928   0.88297303   0.9548392
   0.99614642   1.06330842   1.11307291   1.20752885]
nelec by numeric integration = 145.99999649743248
    CPU time for vxc     38.59 sec, wall time     15.93 sec
E1 = -4123.800505037449  Ecoul = 1906.666263453309  Exc = -124.90261694515937
cycle= 9 E= -835.351731728243  delta_E= -4.71e-06  |g|= 0.0014  |ddm|= 0.00496
    CPU time for cycle= 9     39.06 sec, wall time     16.00 sec
  HOMO = -0.0879092582967056  LUMO = -0.0323256788714679
  mo_energy =
[-10.04004035 -10.03840429 -10.0353016  -10.03471616 -10.03325383
 -10.03142202 -10.0273813  -10.02684792 -10.02543885 -10.02466719
 -10.02289396 -10.02010204 -10.01967704 -10.01667992 -10.0134272
 -10.01096331 -10.00912205 -10.00623378 -10.00388074 -10.00153823
  -9.99905337  -9.97872554  -0.89516034  -0.86502998  -0.83408599
  -0.81985901  -0.79124934  -0.76736704  -0.7431338   -0.71918877
  -0.71019932  -0.6893947   -0.63422829  -0.6246202   -0.58831872
  -0.58032067  -0.56544371  -0.55416394  -0.54612766  -0.53726173
  -0.49851542  -0.49206629  -0.4711489   -0.45433011  -0.43826066
  -0.43581675  -0.42520153  -0.41679324  -0.40927943  -0.40671174
  -0.39326348  -0.38830122  -0.38488506  -0.38045026  -0.37317749
  -0.36130192  -0.34318873  -0.33075359  -0.32156464  -0.31023841
  -0.2860004   -0.28174525  -0.27219241  -0.26714914  -0.25088822
  -0.24543496  -0.23883352  -0.22847168  -0.21830774  -0.20436492
  -0.18612562  -0.17664413  -0.08790926  -0.03232568   0.05530568
   0.0611118    0.096093     0.12110075   0.14973951   0.16463613
   0.18184579   0.19683279   0.20586526   0.22965769   0.23708378
   0.2586847    0.27388238   0.29728726   0.30444545   0.31216911
   0.33069984   0.35350822   0.3734627    0.38227997   0.39192943
   0.40083401   0.41236449   0.4251146    0.47164634   0.47632108
   0.4879345    0.49329912   0.49888173   0.52086629   0.53693416
   0.55030663   0.57227062   0.58898476   0.60325903   0.6215314
   0.64487593   0.67146724   0.68410118   0.73144322   0.73614362
   0.78278548   0.821438     0.85490933   0.88297995   0.95479289
   0.99614075   1.06326865   1.11307037   1.20754585]
nelec by numeric integration = 145.99999649745456
    CPU time for vxc     38.19 sec, wall time     15.75 sec
E1 = -4123.800914245856  Ecoul = 1906.6666839994575  Exc = -124.90262895121509
cycle= 10 E= -835.351732396557  delta_E= -6.68e-07  |g|= 0.000519  |ddm|= 0.00177
    CPU time for cycle= 10     38.67 sec, wall time     15.83 sec
  HOMO = -0.0879036923021769  LUMO = -0.0323164688620995
  mo_energy =
[-10.04004767 -10.03841196 -10.035276   -10.03467028 -10.03324521
 -10.03140108 -10.02736371 -10.02685798 -10.02536185 -10.02467813
 -10.02287775 -10.02013385 -10.0197159  -10.01662625 -10.01342625
 -10.01100806 -10.00912485 -10.00619949 -10.00393268 -10.00155095
  -9.99898168  -9.97874914  -0.89515559  -0.86502704  -0.83407806
  -0.81984916  -0.79124711  -0.76737316  -0.74313467  -0.71918758
  -0.71018603  -0.68938782  -0.6342274   -0.62461053  -0.58831804
  -0.58032228  -0.56543989  -0.55415964  -0.54612383  -0.53726068
  -0.49850984  -0.49205787  -0.47114963  -0.45432442  -0.43825891
  -0.43581324  -0.42519672  -0.41678982  -0.4092743   -0.40670536
  -0.39326008  -0.38829861  -0.38488461  -0.38043913  -0.37317536
  -0.36130186  -0.34318047  -0.33074702  -0.32156283  -0.31023415
  -0.28599646  -0.28174211  -0.27219622  -0.26715566  -0.25088262
  -0.24543616  -0.23883454  -0.22846856  -0.21830379  -0.20435807
  -0.18611901  -0.17663618  -0.08790369  -0.03231647   0.05530707
   0.06111778   0.09610244   0.12109992   0.14973718   0.16463979
   0.18184652   0.1968299    0.20587068   0.22966739   0.23707972
   0.25869343   0.27388033   0.29728716   0.30444821   0.31216919
   0.3307043    0.35350031   0.37347645   0.38229391   0.39193823
   0.40083492   0.41237382   0.42512298   0.47164951   0.47632991
   0.48794434   0.49331031   0.49888916   0.52087146   0.53693595
   0.55031812   0.57226408   0.58898786   0.60325987   0.62152515
   0.6448837    0.67146996   0.68410192   0.73144481   0.73614566
   0.78278363   0.82143128   0.85489635   0.88298156   0.9548159
   0.99614108   1.06328038   1.11307682   1.20755106]
nelec by numeric integration = 145.9999964974738
    CPU time for vxc     37.93 sec, wall time     15.75 sec
E1 = -4123.800167320462  Ecoul = 1906.6659249410234  Exc = -124.90261692939931
cycle= 11 E= -835.351732507781  delta_E= -1.11e-07  |g|= 0.000137  |ddm|= 0.00126
    CPU time for cycle= 11     38.33 sec, wall time     15.81 sec
  HOMO = -0.0879012941073064  LUMO = -0.0323137073268063
  mo_energy =
[-10.0400689  -10.03839595 -10.03528779 -10.03466477 -10.03326581
 -10.03139203 -10.02736555 -10.02685332 -10.02538112 -10.02467304
 -10.02288569 -10.02011788 -10.01969672 -10.01661314 -10.01341315
 -10.01100493 -10.00911026 -10.00620371 -10.00390863 -10.00152353
  -9.99898843  -9.97874226  -0.8951556   -0.86502091  -0.83408447
  -0.81984631  -0.79124623  -0.76736434  -0.74312733  -0.7191831
  -0.71018519  -0.68938557  -0.63422559  -0.62460747  -0.58831374
  -0.58031778  -0.56543797  -0.55415623  -0.5461211   -0.53725941
  -0.49850786  -0.49205837  -0.47114763  -0.45432349  -0.4382571
  -0.43581173  -0.42519848  -0.41678454  -0.40927165  -0.4067037
  -0.39326167  -0.38829725  -0.38488355  -0.38043802  -0.37317156
  -0.36129968  -0.34318297  -0.33074453  -0.32155953  -0.31022923
  -0.28599032  -0.28173965  -0.27218998  -0.26715458  -0.25088293
  -0.24543     -0.23883245  -0.22846488  -0.21829989  -0.20435355
  -0.18611666  -0.17663314  -0.08790129  -0.03231371   0.05530982
   0.06112054   0.09610591   0.12110426   0.14974327   0.16464191
   0.1818442    0.19682918   0.20587345   0.22967116   0.23708573
   0.25869523   0.27388635   0.29728713   0.30445016   0.31217167
   0.33070702   0.35350387   0.37347089   0.38229829   0.39193481
   0.4008366    0.41237387   0.42512382   0.47165201   0.47633269
   0.4879452    0.49331223   0.49889178   0.52087402   0.53693837
   0.55031836   0.57227016   0.58898993   0.60326723   0.62152985
   0.64488854   0.6714741    0.68410486   0.73144826   0.73614618
   0.7827919    0.82143882   0.85490278   0.88298018   0.95482261
   0.99614652   1.06327758   1.1130855    1.20753572]
nelec by numeric integration = 145.99999649747227
    CPU time for vxc     38.13 sec, wall time     15.75 sec
E1 = -4123.799904113811  Ecoul = 1906.6656609680235  Exc = -124.9026161675923
cycle= 12 E= -835.351732512323  delta_E= -4.54e-09  |g|= 7.67e-05  |ddm|= 0.000191
    CPU time for cycle= 12     38.53 sec, wall time     15.81 sec
  HOMO = -0.0879032125144777  LUMO = -0.0323157808715643
  mo_energy =
[-10.04006388 -10.03839871 -10.03528915 -10.03467172 -10.03326277
 -10.03139479 -10.02736578 -10.02685457 -10.0253789  -10.02467479
 -10.02288398 -10.0201189  -10.01970073 -10.01662329 -10.01341938
 -10.01100515 -10.0091161  -10.00619795 -10.00391204 -10.00153171
  -9.99899362  -9.97874071  -0.89515646  -0.86502273  -0.83408364
  -0.81984864  -0.79124722  -0.76736725  -0.74313029  -0.71918439
  -0.71018642  -0.68938703  -0.63422649  -0.62460996  -0.5883156
  -0.58031947  -0.56543938  -0.55415828  -0.54612277  -0.53726
  -0.49850944  -0.49205904  -0.47114854  -0.45432487  -0.43825843
  -0.43581209  -0.42519893  -0.41678576  -0.40927339  -0.40670522
  -0.39326198  -0.38829833  -0.38488427  -0.38043963  -0.3731728
  -0.36130037  -0.34318331  -0.33074622  -0.32156098  -0.31023181
  -0.28599286  -0.28174118  -0.27219209  -0.26715378  -0.25088247
  -0.24543211  -0.23883295  -0.22846671  -0.21830079  -0.20435478
  -0.18611793  -0.17663492  -0.08790321  -0.03231578   0.05530856
   0.06111878   0.09610487   0.12110222   0.14974155   0.1646406
   0.18184632   0.19682997   0.20587197   0.22966837   0.23708418
   0.2586933    0.27388414   0.2972871    0.30444915   0.31216996
   0.33070526   0.35350268   0.37347121   0.38229485   0.39193536
   0.40083612   0.41237296   0.42512289   0.47165065   0.4763311
   0.48794413   0.49331024   0.49888945   0.52087217   0.53693692
   0.55031741   0.57226837   0.58898868   0.603265     0.62152818
   0.64488541   0.67147244   0.68410397   0.73144716   0.73614529
   0.78278915   0.82143672   0.85490073   0.88298023   0.95481749
   0.99614438   1.06327668   1.11308355   1.20753901]
nelec by numeric integration = 145.99999649747608
    CPU time for vxc     37.86 sec, wall time     15.68 sec
E1 = -4123.80011129722  Ecoul = 1906.6658709691947  Exc = -124.90261898725436
cycle= 13 E= -835.351732514223  delta_E= -1.9e-09  |g|= 3.22e-05  |ddm|= 8.91e-05
    CPU time for cycle= 13     38.66 sec, wall time     15.80 sec
  HOMO = -0.0879031065049691  LUMO = -0.0323158926525573
  mo_energy =
[-10.04006279 -10.03840131 -10.03528758 -10.03467119 -10.03326147
 -10.03139717 -10.02736496 -10.02685573 -10.02537952 -10.02467417
 -10.02288433 -10.02012091 -10.01970136 -10.01662268 -10.01341785
 -10.0110038  -10.00911543 -10.00620047 -10.00391268 -10.00153056
  -9.998995    -9.97873972  -0.89515644  -0.86502367  -0.83408336
  -0.81984849  -0.79124733  -0.76736751  -0.74313014  -0.71918452
  -0.71018675  -0.68938707  -0.63422642  -0.62461012  -0.58831576
  -0.58031972  -0.56543932  -0.55415854  -0.54612264  -0.53725994
  -0.49850955  -0.49205921  -0.4711485   -0.45432493  -0.43825859
  -0.43581241  -0.42519878  -0.41678616  -0.40927349  -0.40670506
  -0.39326189  -0.38829823  -0.38488426  -0.38043984  -0.37317337
  -0.36130041  -0.34318312  -0.33074601  -0.32156105  -0.31023184
  -0.2859929   -0.28174111  -0.27219229  -0.26715375  -0.25088275
  -0.2454322   -0.23883254  -0.22846652  -0.21830095  -0.20435513
  -0.186118    -0.17663487  -0.08790311  -0.03231589   0.05530847
   0.06111887   0.0961045    0.12110256   0.14974115   0.16464078
   0.18184617   0.19683025   0.20587163   0.22966849   0.23708411
   0.25869345   0.2738841    0.29728727   0.30444915   0.31217005
   0.33070543   0.35350259   0.37347114   0.38229491   0.39193546
   0.40083645   0.41237284   0.42512274   0.47165098   0.47633048
   0.48794395   0.49330974   0.49888943   0.52087234   0.53693673
   0.55031698   0.57226828   0.58898819   0.60326452   0.62152847
   0.6448856    0.67147236   0.6841037    0.73144695   0.73614536
   0.78278914   0.82143631   0.85490116   0.88297998   0.95481766
   0.99614393   1.06327729   1.11308174   1.20753966]
nelec by numeric integration = 145.99999649747477
    CPU time for vxc     38.40 sec, wall time     15.80 sec
E1 = -4123.800119464653  Ecoul = 1906.6658794872053  Exc = -124.90261933813423
cycle= 14 E= -835.351732514525  delta_E= -3.02e-10  |g|= 1.6e-05  |ddm|= 3.07e-05
    CPU time for cycle= 14     38.83 sec, wall time     15.87 sec
  HOMO = -0.0879027155377589  LUMO = -0.0323155834359998
  mo_energy =
[-10.04006325 -10.03840094 -10.03528728 -10.0346711  -10.03326168
 -10.03139688 -10.0273648  -10.02685532 -10.02538015 -10.02467348
 -10.02288416 -10.02012074 -10.01970056 -10.01662321 -10.01341848
 -10.01100319 -10.00911559 -10.00620018 -10.00391252 -10.001531
  -9.99899519  -9.97873736  -0.89515629  -0.86502359  -0.83408343
  -0.81984827  -0.79124713  -0.7673673   -0.74312999  -0.7191845
  -0.71018669  -0.68938709  -0.63422609  -0.62461001  -0.5883157
  -0.58031955  -0.56543922  -0.55415848  -0.54612246  -0.53725989
  -0.49850948  -0.49205922  -0.4711484   -0.45432483  -0.43825846
  -0.43581243  -0.42519861  -0.4167863   -0.40927333  -0.40670506
  -0.39326189  -0.38829804  -0.384884    -0.38043987  -0.37317329
  -0.36130014  -0.34318312  -0.33074589  -0.32156089  -0.31023169
  -0.28599295  -0.28174093  -0.27219212  -0.26715373  -0.25088286
  -0.24543202  -0.23883223  -0.22846639  -0.21830108  -0.20435518
  -0.18611782  -0.17663488  -0.08790272  -0.03231558   0.05530857
   0.06111895   0.09610442   0.12110274   0.14974125   0.16464103
   0.18184592   0.19683038   0.20587164   0.22966852   0.23708415
   0.25869353   0.27388412   0.29728745   0.30444921   0.31217021
   0.33070556   0.35350282   0.37347109   0.38229469   0.39193533
   0.4008368    0.41237279   0.42512276   0.47165122   0.47633049
   0.4879439    0.49330968   0.49888969   0.52087259   0.53693688
   0.55031701   0.57226846   0.58898826   0.60326454   0.62152892
   0.64488573   0.67147272   0.6841039    0.73144691   0.73614555
   0.78278908   0.82143651   0.85490168   0.88298018   0.95481765
   0.99614405   1.06327751   1.11308191   1.20753937]
nelec by numeric integration = 145.99999649747505
    CPU time for vxc     38.56 sec, wall time     15.91 sec
E1 = -4123.80010922774  Ecoul = 1906.6658688732741  Exc = -124.90261896120913
cycle= 15 E= -835.351732514619  delta_E= -9.32e-11  |g|= 6.68e-06  |ddm|= 2.15e-05
    CPU time for cycle= 15     38.91 sec, wall time     15.97 sec
  HOMO = -0.0879034421987333  LUMO = -0.0323165379372827
  mo_energy =
[-10.04006274 -10.03840246 -10.03528697 -10.0346728  -10.0332615
 -10.03139813 -10.02736391 -10.02685465 -10.02537894 -10.02467354
 -10.02288367 -10.02011981 -10.01970173 -10.01662385 -10.01341712
 -10.01100115 -10.00911555 -10.0062003  -10.00391171 -10.00153069
  -9.99900155  -9.97873661  -0.89515568  -0.86502423  -0.83408348
  -0.81984866  -0.79124659  -0.76736765  -0.74313006  -0.71918444
  -0.71018715  -0.68938682  -0.63422608  -0.62461072  -0.58831563
  -0.58031958  -0.56543917  -0.55415909  -0.54612243  -0.53725962
  -0.49850961  -0.49205916  -0.47114827  -0.45432477  -0.4382588
  -0.4358124   -0.42519841  -0.41678664  -0.40927363  -0.40670503
  -0.39326182  -0.38829765  -0.38488378  -0.38044043  -0.37317371
  -0.36129989  -0.34318322  -0.330746    -0.32156114  -0.31023218
  -0.2859932   -0.28174061  -0.27219244  -0.26715346  -0.25088332
  -0.24543231  -0.23883174  -0.22846654  -0.21830125  -0.20435524
  -0.18611801  -0.17663462  -0.08790344  -0.03231654   0.05530859
   0.06111905   0.09610441   0.12110297   0.14974102   0.1646411
   0.18184577   0.1968307    0.20587095   0.22966809   0.23708394
   0.25869335   0.27388395   0.2972878    0.3044493    0.31217032
   0.33070578   0.35350283   0.37347105   0.38229451   0.39193554
   0.40083711   0.41237262   0.42512276   0.4716516    0.47632942
   0.48794335   0.49330798   0.49888902   0.52087253   0.53693713
   0.55031689   0.57226899   0.58898781   0.60326441   0.62152913
   0.64488545   0.67147249   0.6841039    0.73144709   0.73614614
   0.78278924   0.82143637   0.85490187   0.8829807    0.95481706
   0.99614443   1.06327811   1.11308066   1.20753964]
nelec by numeric integration = 145.99999649747068
    CPU time for vxc     38.26 sec, wall time     15.79 sec
E1 = -4123.800144817538  Ecoul = 1906.665904306883  Exc = -124.90261880453139
Extra cycle  E= -835.35173251413  delta_E= 4.88e-10  |g|= 3.48e-05  |ddm|= 7.7e-05
    CPU time for scf_cycle    665.98 sec, wall time    271.75 sec
    CPU time for SCF    665.98 sec, wall time    271.75 sec
converged SCF energy = -835.35173251413
nelec by numeric integration = 145.99999649747068
    CPU time for vxc     38.27 sec, wall time     15.85 sec
 ** Mulliken pop  **
pop of  0 C 1s            1.99114
pop of  0 C 2s            1.18871
pop of  0 C 2px           0.98814
pop of  0 C 2py           0.91107
pop of  0 C 2pz           0.89704
pop of  1 C 1s            1.99148
pop of  1 C 2s            1.09235
pop of  1 C 2px           0.97418
pop of  1 C 2py           0.95662
pop of  1 C 2pz           0.98686
pop of  2 C 1s            1.99089
pop of  2 C 2s            1.06355
pop of  2 C 2px           0.99875
pop of  2 C 2py           0.99826
pop of  2 C 2pz           1.04616
pop of  3 C 1s            1.99116
pop of  3 C 2s            1.11346
pop of  3 C 2px           1.03346
pop of  3 C 2py           0.94362
pop of  3 C 2pz           0.99711
pop of  4 C 1s            1.99081
pop of  4 C 2s            1.07967
pop of  4 C 2px           1.01169
pop of  4 C 2py           1.01878
pop of  4 C 2pz           1.02081
pop of  5 C 1s            1.99146
pop of  5 C 2s            1.23533
pop of  5 C 2px           0.94579
pop of  5 C 2py           0.91041
pop of  5 C 2pz           0.98090
pop of  6 C 1s            1.99123
pop of  6 C 2s            1.10041
pop of  6 C 2px           0.97111
pop of  6 C 2py           0.94921
pop of  6 C 2pz           0.97826
pop of  7 C 1s            1.99056
pop of  7 C 2s            1.05353
pop of  7 C 2px           1.02348
pop of  7 C 2py           1.04228
pop of  7 C 2pz           1.01174
pop of  8 C 1s            1.99073
pop of  8 C 2s            1.07405
pop of  8 C 2px           1.02727
pop of  8 C 2py           0.97542
pop of  8 C 2pz           0.96043
pop of  9 C 1s            1.99048
pop of  9 C 2s            1.08645
pop of  9 C 2px           0.99331
pop of  9 C 2py           0.98025
pop of  9 C 2pz           0.96350
pop of  10 C 1s           1.99151
pop of  10 C 2s           1.24067
pop of  10 C 2px          0.92817
pop of  10 C 2py          0.89660
pop of  10 C 2pz          0.96664
pop of  11 C 1s           1.99113
pop of  11 C 2s           1.15462
pop of  11 C 2px          1.05195
pop of  11 C 2py          0.91813
pop of  11 C 2pz          0.95614
pop of  12 C 1s           1.99128
pop of  12 C 2s           1.03799
pop of  12 C 2px          1.02161
pop of  12 C 2py          0.98782
pop of  12 C 2pz          0.99505
pop of  13 C 1s           1.99091
pop of  13 C 2s           1.15801
pop of  13 C 2px          0.95539
pop of  13 C 2py          0.96139
pop of  13 C 2pz          0.92086
pop of  14 C 1s           1.99137
pop of  14 C 2s           1.08974
pop of  14 C 2px          1.00919
pop of  14 C 2py          0.98581
pop of  14 C 2pz          1.00869
pop of  15 C 1s           1.99065
pop of  15 C 2s           1.11051
pop of  15 C 2px          1.01628
pop of  15 C 2py          0.97543
pop of  15 C 2pz          1.02451
pop of  16 C 1s           1.99065
pop of  16 C 2s           1.13677
pop of  16 C 2px          0.99355
pop of  16 C 2py          0.91994
pop of  16 C 2pz          0.94084
pop of  17 C 1s           1.99143
pop of  17 C 2s           1.19698
pop of  17 C 2px          0.94795
pop of  17 C 2py          0.91570
pop of  17 C 2pz          0.93013
pop of  18 C 1s           1.99204
pop of  18 C 2s           1.04975
pop of  18 C 2px          1.00020
pop of  18 C 2py          1.02230
pop of  18 C 2pz          0.99486
pop of  19 C 1s           1.99141
pop of  19 C 2s           1.16572
pop of  19 C 2px          0.99307
pop of  19 C 2py          0.95523
pop of  19 C 2pz          1.00759
pop of  20 C 1s           1.99180
pop of  20 C 2s           1.09662
pop of  20 C 2px          1.00364
pop of  20 C 2py          1.04485
pop of  20 C 2pz          0.96017
pop of  21 C 1s           1.99088
pop of  21 C 2s           1.15340
pop of  21 C 2px          1.00249
pop of  21 C 2py          1.00948
pop of  21 C 2pz          0.93749
pop of  22 H 1s           0.90392
pop of  23 H 1s           0.92067
pop of  24 H 1s           0.90464
pop of  25 H 1s           0.93446
pop of  26 H 1s           0.97409
pop of  27 H 1s           0.89957
pop of  28 H 1s           0.93868
pop of  29 H 1s           0.90169
pop of  30 H 1s           0.91869
pop of  31 H 1s           0.90719
pop of  32 H 1s           0.95505
pop of  33 H 1s           0.89600
pop of  34 H 1s           0.90270
pop of  35 H 1s           0.90432
 ** Mulliken atomic charges  **
charge of    0C =      0.02389
charge of    1C =     -0.00149
charge of    2C =     -0.09762
charge of    3C =     -0.07881
charge of    4C =     -0.12175
charge of    5C =     -0.06389
charge of    6C =      0.00979
charge of    7C =     -0.12159
charge of    8C =     -0.02789
charge of    9C =     -0.01399
charge of   10C =     -0.02358
charge of   11C =     -0.07197
charge of   12C =     -0.03376
charge of   13C =      0.01345
charge of   14C =     -0.08480
charge of   15C =     -0.11738
charge of   16C =      0.01825
charge of   17C =      0.01780
charge of   18C =     -0.05915
charge of   19C =     -0.11302
charge of   20C =     -0.09708
charge of   21C =     -0.09373
charge of   22H =      0.09608
charge of   23H =      0.07933
charge of   24H =      0.09536
charge of   25H =      0.06554
charge of   26H =      0.02591
charge of   27H =      0.10043
charge of   28H =      0.06132
charge of   29H =      0.09831
charge of   30H =      0.08131
charge of   31H =      0.09281
charge of   32H =      0.04495
charge of   33H =      0.10400
charge of   34H =      0.09730
charge of   35H =      0.09568
Dipole moment(X, Y, Z, Debye):  0.19845, -0.07301, -0.03554
nelec by numeric integration = 145.99999649747068
    CPU time for vxc     38.06 sec, wall time     15.79 sec
E1 = -4123.800144817538  Ecoul = 1906.665904306883  Exc = -124.90261880453139
nelec by numeric integration = 145.99999649747068
    CPU time for vxc     37.74 sec, wall time     15.65 sec
E1 = -4123.800144817538  Ecoul = 1906.665904306883  Exc = -124.90261880453139
