System: uname_result(system='Linux', node='cosmopc18', release='5.15.0-97-generic', version='#107-Ubuntu SMP Wed Feb 7 13:26:48 UTC 2024', machine='x86_64')  Threads 4
Python 3.11.8 (main, Feb 26 2024, 21:39:34) [GCC 11.2.0]
numpy 1.26.4  scipy 1.11.4
Date: Tue Apr  9 15:58:45 2024
PySCF version 2.3.0
PySCF path  /home/saade/miniconda3/envs/tutorial/lib/python3.11/site-packages/pyscf

[ENV] PYSCFAD_BACKEND torch
[CONFIG] conf_file None
[INPUT] verbose = 5
[INPUT] max_memory = 4000 
[INPUT] num. atoms = 36
[INPUT] num. electrons = 146
[INPUT] charge = 0
[INPUT] spin (= nelec alpha-beta = 2S) = 0
[INPUT] symmetry False subgroup None
[INPUT] Mole.unit = angstrom
[INPUT] Symbol           X                Y                Z      unit          X                Y                Z       unit  Magmom
[INPUT]  1 C      0.089580000000   3.713895000000   0.771256000000 AA    0.169281666239   7.018244405392   1.457462611928 Bohr   0.0
[INPUT]  2 C     -0.064339000000   3.915732000000  -0.651363000000 AA   -0.121583089128   7.399661057195  -1.230897677675 Bohr   0.0
[INPUT]  3 C     -0.019902000000   4.913919000000   1.238778000000 AA   -0.037609329331   9.285961108297   2.340951149136 Bohr   0.0
[INPUT]  4 C     -0.023390000000   2.490505000000   1.464106000000 AA   -0.044200694054   4.706372361860   2.766759357332 Bohr   0.0
[INPUT]  5 C      0.022034000000   4.981645000000  -1.179921000000 AA    0.041638225429   9.413944699809  -2.229727538623 Bohr   0.0
[INPUT]  6 C     -0.070299000000   2.694592000000  -1.340994000000 AA   -0.132845856831   5.092040897444  -2.534111394685 Bohr   0.0
[INPUT]  7 C     -0.054935000000   6.192263000000  -0.758941000000 AA   -0.103812104653  11.701681161278  -1.434190634704 Bohr   0.0
[INPUT]  8 C      0.006512000000   6.013069000000   0.747618000000 AA    0.012305896523  11.363053578112   1.412793265795 Bohr   0.0
[INPUT]  9 C      0.097173000000   1.310355000000   0.584294000000 AA    0.183630356702   2.476212075954   1.104155636227 Bohr   0.0
[INPUT] 10 C     -0.077158000000   1.280128000000  -0.565618000000 AA   -0.145807488319   2.419091324387  -1.068863111124 Bohr   0.0
[INPUT] 11 C      0.043943000000  -0.026353000000   1.592855000000 AA    0.083040235092  -0.049799952561   3.010059706144 Bohr   0.0
[INPUT] 12 C     -0.074863000000   0.042636000000  -1.381132000000 AA   -0.141470566863   0.080570363047  -2.609961221873 Bohr   0.0
[INPUT] 13 C      0.161905000000  -1.349888000000   0.855015000000 AA    0.305956108198  -2.550918618837   1.615744182395 Bohr   0.0
[INPUT] 14 C     -0.023901000000  -1.287193000000  -0.752388000000 AA   -0.045166344103  -2.432442239457  -1.421807259409 Bohr   0.0
[INPUT] 15 C      0.088133000000  -2.518227000000   1.324610000000 AA    0.166547232536  -4.758759349485   2.503150121860 Bohr   0.0
[INPUT] 16 C      0.095542000000  -2.565767000000  -1.466637000000 AA    0.180548213393  -4.848596929447  -2.771542254154 Bohr   0.0
[INPUT] 17 C     -0.122489000000  -3.543390000000   0.652860000000 AA   -0.231470663272  -6.696036652523   1.233726597684 Bohr   0.0
[INPUT] 18 C     -0.000611000000  -3.593620000000  -0.673509000000 AA   -0.001154622662  -6.790957595759  -1.272747552430 Bohr   0.0
[INPUT] 19 C      0.103333000000  -5.015864000000   1.379512000000 AA    0.195271069630  -9.478609238065   2.606899865551 Bohr   0.0
[INPUT] 20 C     -0.032110000000  -4.877696000000  -1.649571000000 AA   -0.060679105860  -9.217509558887  -3.117237413025 Bohr   0.0
[INPUT] 21 C     -0.113915000000  -6.327788000000   0.887852000000 AA   -0.215268151480 -11.957786294309   1.677797119147 Bohr   0.0
[INPUT] 22 C     -0.071824000000  -6.063272000000  -0.816539000000 AA   -0.135727689171 -11.457923498744  -1.543035080026 Bohr   0.0
[INPUT] 23 H      0.124625000000   4.964914000000   2.494113000000 AA    0.235507118274   9.382327692019   4.713190493717 Bohr   0.0
[INPUT] 24 H      0.175919000000   2.324696000000   2.500080000000 AA    0.332438730107   4.393038762872   4.724466489503 Bohr   0.0
[INPUT] 25 H     -0.156278000000   5.027730000000  -2.530246000000 AA   -0.295322619295   9.501032728259  -4.781471967776 Bohr   0.0
[INPUT] 26 H     -0.053328000000   2.442487000000  -2.495335000000 AA   -0.100775314771   4.615631492811  -4.715499739042 Bohr   0.0
[INPUT] 27 H     -0.064089000000   6.944478000000  -1.419478000000 AA   -0.121110657597  13.123161498067  -2.682424659845 Bohr   0.0
[INPUT] 28 H     -0.001392000000   6.891455000000   1.271755000000 AA   -0.002630498765  13.022962549765   2.403268647546 Bohr   0.0
[INPUT] 29 H     -0.045680000000  -0.016222000000   2.557312000000 AA   -0.086322689370  -0.030655137193   4.832619295064 Bohr   0.0
[INPUT] 30 H     -0.160687000000   0.186337000000  -2.780615000000 AA   -0.303654421778   0.352125896873  -5.254600807857 Bohr   0.0
[INPUT] 31 H      0.007137000000  -2.567080000000   2.589805000000 AA    0.013486975351  -4.851078139848   4.894022166029 Bohr   0.0
[INPUT] 32 H     -0.001015000000  -2.349427000000  -2.586206000000 AA   -0.001918072016  -4.439773579659  -4.887221041707 Bohr   0.0
[INPUT] 33 H      0.067434000000  -4.948134000000   2.471078000000 AA    0.127431791484  -9.350618087649   4.669660652438 Bohr   0.0
[INPUT] 34 H     -0.091397000000  -5.052133000000  -2.527505000000 AA   -0.172715298607  -9.547147714877  -4.776292228469 Bohr   0.0
[INPUT] 35 H     -0.028152000000  -6.980870000000   1.268579000000 AA   -0.053199569859 -13.191932411193   2.397266877375 Bohr   0.0
[INPUT] 36 H     -0.014101000000  -6.873405000000  -1.328502000000 AA   -0.026647028082 -12.988852993216  -2.510504935937 Bohr   0.0
[INPUT] ---------------- BASIS SET ---------------- 
[INPUT] l, kappa, [nprim/nctr], expnt,             c_1 c_2 ...
[INPUT] H
[INPUT] 0    0    [3    /1   ]  3.42525091        0.15432897
                                0.62391373        0.53532814
                                0.1688554         0.44463454
[INPUT] C
[INPUT] 0    0    [3    /1   ]  71.616837         0.15432897
                                13.045096         0.53532814
                                3.5305122         0.44463454
[INPUT] 0    0    [3    /1   ]  2.9412494         -0.09996723
                                0.6834831         0.39951283
                                0.2222899         0.70011547
[INPUT] 1    0    [3    /1   ]  2.9412494         0.15591627
                                0.6834831         0.60768372
                                0.2222899         0.39195739

nuclear repulsion = 1489.00795091702
number of shells = 80
number of NR pGTOs = 372
number of NR cGTOs = 124
basis = sto3g
ecp = {}
CPU time:     55122.85
atom C rad-grids = 99, ang-grids = [ 50  50  50  50  50  50  50  50  50  50  50  50  50  50  50  50  50  50
  50  50  50  50  50  50  50  50  50  50  50  50  50  86  86  86  86  86
  86  86  86  86  86  86  86 434 434 434 434 434 434 434 434 434 590 590
 590 590 590 590 590 590 590 590 590 590 590 590 590 590 590 590 590 590
 590 590 590 590 590 590 590 434 434 434 434 434 434 434 434 434 434 434
 434 434 434 434 434 434 434 434 434]
atom H rad-grids = 99, ang-grids = [ 50  50  50  50  50  50  50  50  50  50  50  50  50  50  50  50  50  50
  50  50  50  50  50  50  50  50  50  50  86  86  86  86  86  86  86 434
 434 434 434 434 434 434 434 590 590 590 590 590 590 590 590 590 590 590
 590 590 590 590 590 590 590 590 590 590 590 590 590 590 590 434 434 434
 434 434 434 434 434 434 434 434 434 434 434 434 434 434 434 434 434 434
 434 434 434 434 434 434 434 434 434]
tot_boxes 5270, boxes in each direction [ 8 29 15]
Padding 0 grids
tot grids = 1157832


******** <class 'pyscf.dft.rks.RKS'> ********
method = RKS
initial guess = minao
damping factor = 0
level_shift factor = 0
DIIS = <class 'pyscf.scf.diis.CDIIS'>
diis_start_cycle = 1
diis_space = 8
SCF conv_tol = 1e-10
SCF conv_tol_grad = None
SCF max_cycles = 50
direct_scf = True
direct_scf_tol = 1e-13
chkfile to save SCF result = /home/saade/mlelec/tutorials/tmpkqusxc74
max_memory 4000 MB (current use 691 MB)
XC library pyscf.dft.libxc version 6.1.0
    S. Lehtola, C. Steigemann, M. J.T. Oliveira, and M. A.L. Marques.,  SoftwareX 7, 1–5 (2018)
XC functionals = b3lypg
    P. J. Stephens, F. J. Devlin, C. F. Chabalowski, and M. J. Frisch.,  J. Phys. Chem. 98, 11623 (1994)
radial grids: 
    Treutler-Ahlrichs [JCP 102, 346 (1995); DOI:10.1063/1.469408] (M4) radial grids
    
becke partition: Becke, JCP 88, 2547 (1988); DOI:10.1063/1.454033
pruning grids: <function nwchem_prune at 0x7f9db5616ca0>
grids dens level: 3
symmetrized grids: False
atomic radii adjust function: <function treutler_atomic_radii_adjust at 0x7f9db5617380>
User specified grid scheme (99, 590)
small_rho_cutoff = 1e-07
Set gradient conv threshold to 1e-05
Initial guess from minao.
nelec by numeric integration = 145.26569550333275
    CPU time for vxc     36.97 sec, wall time     15.55 sec
E1 = -4077.527568120953  Ecoul = 1873.3005558098191  Exc = -126.05236269857471
init E= -841.271424092687
cond(S) = 24.26158148370054
    CPU time for initialize scf     46.81 sec, wall time     17.88 sec
  HOMO = -0.205771490173989  LUMO = -0.140898157335675
  mo_energy =
[-1.01384107e+01 -1.01370539e+01 -1.01347002e+01 -1.01324286e+01
 -1.01322426e+01 -1.01307145e+01 -1.01227769e+01 -1.01177299e+01
 -1.01161409e+01 -1.01147407e+01 -1.01135020e+01 -1.01051218e+01
 -1.01039033e+01 -1.00986068e+01 -1.00937377e+01 -1.00932224e+01
 -1.00855730e+01 -1.00815705e+01 -1.00775388e+01 -1.00746316e+01
 -1.00742521e+01 -1.00715084e+01 -1.12820835e+00 -1.09207053e+00
 -1.04319718e+00 -9.59321807e-01 -9.55306808e-01 -9.35610818e-01
 -9.22796423e-01 -8.74309657e-01 -8.68568382e-01 -8.47929298e-01
 -7.97233701e-01 -7.65521154e-01 -7.36536771e-01 -7.19829821e-01
 -6.92376531e-01 -6.74776859e-01 -6.63512575e-01 -6.46696139e-01
 -6.24506349e-01 -5.89931517e-01 -5.67570458e-01 -5.50183472e-01
 -5.39300825e-01 -5.34836134e-01 -5.09448782e-01 -5.01731207e-01
 -4.92551063e-01 -4.89322868e-01 -4.79952216e-01 -4.70838928e-01
 -4.67578406e-01 -4.58895183e-01 -4.54373190e-01 -4.31720917e-01
 -4.30115492e-01 -4.17491973e-01 -4.06587428e-01 -3.89772008e-01
 -3.69734357e-01 -3.61549715e-01 -3.53920211e-01 -3.45082055e-01
 -3.37427921e-01 -3.29998631e-01 -3.19087401e-01 -3.14166703e-01
 -2.93919114e-01 -2.83512232e-01 -2.69445053e-01 -2.47891312e-01
 -2.05771490e-01 -1.40898157e-01 -1.06373351e-01 -6.97407467e-02
 -6.51473114e-02 -3.99946877e-02 -3.80744635e-04  1.16986073e-02
  4.24448669e-02  5.27547699e-02  7.46934315e-02  8.17530339e-02
  9.18990349e-02  1.00365352e-01  1.12103122e-01  1.27876667e-01
  1.51387705e-01  1.61758268e-01  1.87724279e-01  1.96512077e-01
  2.08636784e-01  2.23322193e-01  2.31994857e-01  2.55029401e-01
  2.73597853e-01  2.88079984e-01  2.89929084e-01  3.35605772e-01
  3.43625021e-01  3.69572634e-01  3.93642032e-01  4.17721567e-01
  4.18708490e-01  4.33358574e-01  4.39975924e-01  4.47841767e-01
  4.64618626e-01  4.81062732e-01  4.85418810e-01  5.02469466e-01
  5.53961699e-01  5.78739026e-01  6.06027492e-01  6.16048128e-01
  6.68565348e-01  7.51912979e-01  7.55225772e-01  7.91542478e-01
  7.93009138e-01  8.76649848e-01  8.79401449e-01  8.92045164e-01]
nelec by numeric integration = 145.99999668950608
    CPU time for vxc     38.04 sec, wall time     15.80 sec
E1 = -4092.0141616286137  Ecoul = 1892.363978487978  Exc = -124.70116759183884
cycle= 1 E= -835.343399815453  delta_E= 5.93  |g|= 0.291  |ddm|= 9.28
    CPU time for cycle= 1     38.44 sec, wall time     15.87 sec
  HOMO = -0.100334545337426  LUMO = -0.000924324755652009
  mo_energy =
[-1.00703815e+01 -1.00372594e+01 -1.00188639e+01 -1.00184126e+01
 -1.00160850e+01 -9.99829138e+00 -9.99488938e+00 -9.99478710e+00
 -9.99004464e+00 -9.98913743e+00 -9.98836971e+00 -9.98661719e+00
 -9.98590234e+00 -9.98340361e+00 -9.98202732e+00 -9.97958839e+00
 -9.97543778e+00 -9.97230287e+00 -9.96003239e+00 -9.95823610e+00
 -9.95360859e+00 -9.93792350e+00 -8.51424572e-01 -8.38296012e-01
 -7.97039487e-01 -7.47395940e-01 -7.35821059e-01 -7.34474131e-01
 -7.21902974e-01 -6.90602611e-01 -6.87762050e-01 -6.68563655e-01
 -6.33744110e-01 -6.14003618e-01 -5.94069255e-01 -5.72002397e-01
 -5.68690693e-01 -5.46889709e-01 -5.30928938e-01 -5.17055427e-01
 -4.95537953e-01 -4.75044348e-01 -4.54658322e-01 -4.33441351e-01
 -4.30526343e-01 -4.24308839e-01 -4.07060488e-01 -3.97489530e-01
 -3.89585575e-01 -3.76678902e-01 -3.70000244e-01 -3.60233848e-01
 -3.53168124e-01 -3.49549418e-01 -3.45534902e-01 -3.38255124e-01
 -3.20840062e-01 -3.10714919e-01 -3.00139673e-01 -2.97599491e-01
 -2.67637181e-01 -2.55305320e-01 -2.43569690e-01 -2.41213144e-01
 -2.38334313e-01 -2.31734457e-01 -2.17912884e-01 -2.06523243e-01
 -1.98980529e-01 -1.72827768e-01 -1.65119983e-01 -1.40818802e-01
 -1.00334545e-01 -9.24324756e-04  3.62171749e-02  7.11383053e-02
  8.32527270e-02  1.12191953e-01  1.49267943e-01  1.66057768e-01
  1.74031196e-01  2.12419391e-01  2.13249402e-01  2.23335767e-01
  2.45139999e-01  2.58456272e-01  2.66377930e-01  2.76745032e-01
  2.92932970e-01  3.21521793e-01  3.23360689e-01  3.51201519e-01
  3.66113851e-01  3.73045887e-01  3.78767960e-01  3.89958904e-01
  4.33360531e-01  4.37402738e-01  4.46384029e-01  4.51044236e-01
  4.94000638e-01  5.25987758e-01  5.50770215e-01  5.61538065e-01
  5.62623508e-01  5.80403272e-01  5.86263430e-01  5.91525558e-01
  6.02645411e-01  6.15520310e-01  6.28676524e-01  6.49007598e-01
  7.16448983e-01  7.31442306e-01  7.75302330e-01  7.77402430e-01
  7.95684525e-01  9.23173274e-01  9.35745209e-01  9.56040956e-01
  9.76946971e-01  9.99702242e-01  1.05856202e+00  1.07514757e+00]
nelec by numeric integration = 145.99999660105794
    CPU time for vxc     38.47 sec, wall time     15.82 sec
E1 = -4086.683496861402  Ecoul = 1886.8834200031868  Exc = -124.54071136378528
cycle= 2 E= -835.332837304979  delta_E= 0.0106  |g|= 0.354  |ddm|= 0.968
    CPU time for cycle= 2     38.90 sec, wall time     15.88 sec
  HOMO = -0.110793394105914  LUMO = -0.0102892329555633
  mo_energy =
[-10.03396539 -10.03359549 -10.0330563  -10.03259819 -10.03011087
 -10.02723314 -10.02654492 -10.02601501 -10.02242361 -10.02143825
 -10.01192585 -10.01023162 -10.00983496 -10.00862481 -10.00388092
 -10.00282725 -10.00238948 -10.00181228  -9.99781279  -9.99716591
  -9.98475015  -9.97352055  -0.88082218  -0.85920114  -0.82082057
  -0.76323354  -0.7586773   -0.74599961  -0.73920296  -0.70573623
  -0.70060893  -0.68495842  -0.64743585  -0.624428    -0.60312401
  -0.58711602  -0.57256207  -0.55632019  -0.54626881  -0.5291684
  -0.50924288  -0.48469412  -0.46423295  -0.4533016   -0.44128206
  -0.43938912  -0.4171147   -0.40862909  -0.40270893  -0.38624194
  -0.38376338  -0.37880489  -0.37261166  -0.3670897   -0.36073123
  -0.33822335  -0.33311464  -0.32103773  -0.31644591  -0.30518697
  -0.27111669  -0.2680389   -0.26592404  -0.2592552   -0.25081055
  -0.24005883  -0.23296821  -0.2200428   -0.21073372  -0.18744051
  -0.17754152  -0.15202366  -0.11079339  -0.01028923   0.03026987
   0.06468182   0.06836275   0.09514972   0.13761991   0.14916192
   0.18209177   0.18983532   0.20844347   0.21552447   0.23446775
   0.24363219   0.24919037   0.26133614   0.28300926   0.30244523
   0.33414347   0.34594902   0.35068037   0.36290259   0.37274086
   0.38549271   0.40642024   0.42163117   0.42555146   0.45922936
   0.47691955   0.5042772    0.53218162   0.54960749   0.55759409
   0.56497654   0.57551837   0.59472137   0.60037844   0.60439898
   0.60929166   0.63015726   0.69615752   0.71254032   0.74914666
   0.75789283   0.78403566   0.89455771   0.90226004   0.93248039
   0.94177291   0.99094161   1.02766929   1.04230398]
nelec by numeric integration = 145.99999662878133
    CPU time for vxc     37.81 sec, wall time     15.65 sec
E1 = -4088.5599701954375  Ecoul = 1888.7756818659805  Exc = -124.58832091302418
cycle= 3 E= -835.36465832546  delta_E= -0.0318  |g|= 0.19  |ddm|= 0.752
    CPU time for cycle= 3     38.20 sec, wall time     15.72 sec
  HOMO = -0.115173303996632  LUMO = -0.0149789512223524
  mo_energy =
[-10.0436648  -10.04190713 -10.04146672 -10.03790178 -10.03777009
 -10.03376376 -10.03159823 -10.02823796 -10.02660223 -10.02631576
 -10.02450845 -10.02380235 -10.01775797 -10.01703233 -10.01476951
 -10.01383143 -10.01328283 -10.00242759 -10.00157151 -10.0014999
  -9.99854453  -9.99239174  -0.88813083  -0.86406978  -0.82866495
  -0.76713029  -0.76549302  -0.75175719  -0.74333382  -0.70957276
  -0.70274973  -0.68734393  -0.65014186  -0.62951238  -0.6084711
  -0.59323131  -0.57605017  -0.56041421  -0.54755589  -0.53417627
  -0.51467314  -0.49057216  -0.46908388  -0.45374814  -0.44427719
  -0.44078203  -0.42011891  -0.41173069  -0.40166599  -0.39417376
  -0.3899944   -0.38417821  -0.37476745  -0.37178449  -0.36632638
  -0.34586566  -0.33947497  -0.3274894   -0.32243646  -0.31248232
  -0.27641159  -0.27492787  -0.27035022  -0.2629405   -0.25536867
  -0.24570012  -0.23769204  -0.22455326  -0.2157572   -0.19280657
  -0.18137898  -0.15836182  -0.1151733   -0.01497895   0.02126505
   0.05930176   0.06414906   0.09114197   0.13138962   0.14629922
   0.1748042    0.18170631   0.20421649   0.20853999   0.22953345
   0.23724621   0.24566217   0.25848034   0.27903696   0.29838509
   0.32728796   0.33004528   0.34274615   0.3553868    0.36589509
   0.37953591   0.40891531   0.42010458   0.42580875   0.45671189
   0.475782     0.50431314   0.53004871   0.54761369   0.55388217
   0.56063499   0.57217314   0.58080678   0.59616802   0.60336541
   0.60848362   0.62672168   0.6895572    0.70985737   0.74263921
   0.75139428   0.78241315   0.89054801   0.89601253   0.92734345
   0.93509675   0.99088579   1.01835124   1.03277435]
nelec by numeric integration = 145.999996652034
    CPU time for vxc     37.73 sec, wall time     15.66 sec
E1 = -4089.3102855585157  Ecoul = 1889.5290584319457  Exc = -124.6018282333975
cycle= 4 E= -835.375104442946  delta_E= -0.0104  |g|= 0.0926  |ddm|= 0.399
    CPU time for cycle= 4     38.18 sec, wall time     15.73 sec
  HOMO = -0.117160294064441  LUMO = -0.0172886789752664
  mo_energy =
[-10.04027844 -10.03765557 -10.03759202 -10.03642195 -10.03542716
 -10.03351685 -10.02748826 -10.02645372 -10.02547638 -10.02355733
 -10.02132363 -10.01851011 -10.01740504 -10.01474894 -10.01464089
 -10.01416281 -10.01332275 -10.01276288 -10.01129472 -10.00930064
 -10.00313022  -9.99975907  -0.88482405  -0.86337624  -0.82734096
  -0.76686675  -0.76317652  -0.75080201  -0.74323642  -0.70946798
  -0.70345992  -0.68784282  -0.65083878  -0.63053316  -0.60817756
  -0.59285731  -0.57639721  -0.55934528  -0.54911554  -0.53278946
  -0.51321695  -0.48991031  -0.46852533  -0.45485844  -0.44447873
  -0.44283877  -0.42145297  -0.41201818  -0.40301323  -0.39266856
  -0.38814239  -0.38437106  -0.37483726  -0.37176429  -0.36589767
  -0.34522686  -0.33943839  -0.32704336  -0.32077244  -0.3108331
  -0.27739638  -0.27324184  -0.27052398  -0.26370715  -0.25572996
  -0.24555379  -0.23884501  -0.22444371  -0.21511757  -0.19238048
  -0.18329421  -0.15897605  -0.11716029  -0.01728868   0.02067335
   0.05951149   0.06251083   0.09088694   0.13223008   0.1452912
   0.17687241   0.18412862   0.20324103   0.21059949   0.22883164
   0.23731415   0.24427309   0.25886573   0.28032825   0.29800146
   0.32910502   0.33297937   0.34329179   0.35525164   0.3658501
   0.38059702   0.40840956   0.4192596    0.42445892   0.4543305
   0.47313209   0.50327438   0.53062771   0.54785011   0.55235022
   0.56060115   0.57117831   0.58267204   0.59549793   0.60172388
   0.60654193   0.62663785   0.69094618   0.70831915   0.74432737
   0.75255697   0.7837609    0.89110686   0.89833944   0.92743483
   0.93740708   0.9913016    1.02021339   1.0365225 ]
nelec by numeric integration = 145.99999663931345
    CPU time for vxc     37.53 sec, wall time     15.63 sec
E1 = -4089.119674747036  Ecoul = 1889.333421107995  Exc = -124.5993116082663
cycle= 5 E= -835.377614330285  delta_E= -0.00251  |g|= 0.038  |ddm|= 0.18
    CPU time for cycle= 5     37.92 sec, wall time     15.70 sec
  HOMO = -0.115858837152598  LUMO = -0.0155282790876321
  mo_energy =
[-10.04059361 -10.03772419 -10.03539849 -10.0348105  -10.03266339
 -10.02940406 -10.02674833 -10.02651805 -10.02433463 -10.02238612
 -10.01943624 -10.01886092 -10.01633495 -10.01518745 -10.01508883
 -10.01284845 -10.01250372 -10.01028062 -10.01003657 -10.0069073
 -10.00237788  -9.99974343  -0.88342771  -0.86261111  -0.82551518
  -0.76613352  -0.76182745  -0.75085696  -0.74288316  -0.70879246
  -0.70307384  -0.68705291  -0.6496045   -0.628964    -0.60717978
  -0.5916406   -0.57627411  -0.55945993  -0.54783374  -0.53233822
  -0.51285909  -0.48905624  -0.46841128  -0.45360517  -0.44367945
  -0.44173719  -0.42093713  -0.41159892  -0.40206796  -0.39205187
  -0.38728441  -0.38333166  -0.37402718  -0.37109795  -0.36537357
  -0.3443442   -0.33864661  -0.32571708  -0.32054438  -0.31099518
  -0.27688788  -0.27220406  -0.27006609  -0.26299552  -0.25501812
  -0.24581187  -0.23789527  -0.22409816  -0.21472263  -0.19227073
  -0.18234955  -0.1582229   -0.11585884  -0.01552828   0.0221325
   0.05962926   0.0632845    0.09109865   0.13184669   0.14619956
   0.17647744   0.18547083   0.20390116   0.21093768   0.22871546
   0.23894741   0.2460213    0.25958224   0.28004052   0.29895165
   0.33014979   0.33396794   0.34423713   0.35636582   0.3661691
   0.38050987   0.40904229   0.41984576   0.42547665   0.45490225
   0.47526742   0.50391676   0.53082721   0.54848084   0.55247332
   0.56046822   0.57213918   0.58417112   0.59596875   0.6032378
   0.60782749   0.62712492   0.6916063    0.70989117   0.7455955
   0.75252042   0.78316593   0.89246491   0.89957578   0.9285385
   0.93889167   0.99023823   1.02240871   1.03813437]
nelec by numeric integration = 145.99999663811997
    CPU time for vxc     37.85 sec, wall time     15.68 sec
E1 = -4089.0271913056736  Ecoul = 1889.23848228293  Exc = -124.59733272343138
cycle= 6 E= -835.378090829154  delta_E= -0.000476  |g|= 0.014  |ddm|= 0.0769
    CPU time for cycle= 6     38.22 sec, wall time     15.74 sec
  HOMO = -0.115667121484441  LUMO = -0.0153286692893064
  mo_energy =
[-10.03977177 -10.03711268 -10.03685368 -10.03504634 -10.03283674
 -10.02993781 -10.02797274 -10.02558998 -10.02508078 -10.02276276
 -10.01865563 -10.01664828 -10.01642978 -10.01440767 -10.01349742
 -10.0120377  -10.01060698 -10.01004137 -10.00817346 -10.00737332
 -10.00098981  -9.99937897  -0.88377443  -0.8622076   -0.82541708
  -0.76580182  -0.76213436  -0.75026772  -0.74252245  -0.70843484
  -0.70268097  -0.68669309  -0.6493908   -0.62895109  -0.60706102
  -0.59159931  -0.57584358  -0.55904742  -0.54769943  -0.53227679
  -0.51264757  -0.48882602  -0.46789503  -0.4533981   -0.44343663
  -0.44153578  -0.42059109  -0.41126064  -0.40196536  -0.39184277
  -0.38739262  -0.38323055  -0.37387975  -0.37075643  -0.3649915
  -0.3444182   -0.33840964  -0.32555533  -0.32069598  -0.3108408
  -0.27654849  -0.27227313  -0.26981057  -0.26267798  -0.25487663
  -0.24518011  -0.23760885  -0.223821    -0.21468841  -0.19182636
  -0.18202591  -0.15788502  -0.11566712  -0.01532867   0.0223361
   0.06012326   0.06365928   0.0915964    0.13263487   0.14644976
   0.17664334   0.18523011   0.20414738   0.21058868   0.22932493
   0.23903145   0.24601272   0.25968553   0.28047631   0.299191
   0.33007712   0.33406217   0.34438249   0.35651137   0.36663515
   0.38100892   0.40922757   0.42050021   0.42566111   0.45506032
   0.47524049   0.50428161   0.53130549   0.54880443   0.55305868
   0.56107611   0.57242018   0.58407517   0.5963563    0.60346052
   0.60767816   0.62750097   0.69194578   0.71005672   0.74559069
   0.75339349   0.78374757   0.89256244   0.89944803   0.92879837
   0.93890419   0.99067726   1.02238375   1.0376328 ]
nelec by numeric integration = 145.99999663878236
    CPU time for vxc     38.29 sec, wall time     15.74 sec
E1 = -4089.0237284248146  Ecoul = 1889.2340134296646  Exc = -124.59639599146344
cycle= 7 E= -835.378160069592  delta_E= -6.92e-05  |g|= 0.00254  |ddm|= 0.023
    CPU time for cycle= 7     38.82 sec, wall time     15.83 sec
  HOMO = -0.11567508385563  LUMO = -0.0152898276255767
  mo_energy =
[-10.03976996 -10.03692667 -10.03674102 -10.03535407 -10.03317611
 -10.0300608  -10.02739294 -10.02479465 -10.02470653 -10.02234438
 -10.01858413 -10.01690211 -10.01648153 -10.01460909 -10.01373858
 -10.01224259 -10.01060766 -10.01020401 -10.00804134 -10.00768014
 -10.00069789  -9.99930993  -0.88371023  -0.86224961  -0.82553828
  -0.76575124  -0.76206815  -0.75024693  -0.74242238  -0.70840718
  -0.70261729  -0.68669598  -0.64939594  -0.62890782  -0.60704115
  -0.59159942  -0.57579748  -0.55898473  -0.54769427  -0.53219527
  -0.51264941  -0.48887451  -0.46794334  -0.45342712  -0.44344662
  -0.44149752  -0.42051082  -0.41126257  -0.40198382  -0.3918064
  -0.38733747  -0.38323395  -0.37392031  -0.37077163  -0.36499725
  -0.34436586  -0.33842745  -0.32563746  -0.32065519  -0.31082793
  -0.27642957  -0.27223712  -0.26977655  -0.26263381  -0.25486268
  -0.24514199  -0.23760692  -0.22376058  -0.21463809  -0.19178501
  -0.18196145  -0.15785253  -0.11567508  -0.01528983   0.0223909
   0.06019045   0.06374531   0.09165927   0.13260047   0.14651039
   0.17662841   0.18527228   0.20420762   0.21069881   0.22958573
   0.23893815   0.245978     0.25965643   0.28045736   0.29918002
   0.33012278   0.33410478   0.34440877   0.35657266   0.36668272
   0.3809461    0.40924232   0.42038895   0.425629     0.45509237
   0.47525298   0.50423763   0.53128358   0.54871442   0.55322974
   0.56108722   0.57249555   0.58418035   0.59643087   0.6034523
   0.60773671   0.62749971   0.69191184   0.71003119   0.74561549
   0.75330115   0.78380397   0.89255279   0.89948459   0.92878043
   0.93885673   0.99105569   1.02219902   1.03768268]
nelec by numeric integration = 145.99999663851924
    CPU time for vxc     38.22 sec, wall time     15.80 sec
E1 = -4089.0255634667164  Ecoul = 1889.235850528463  Exc = -124.5963999859437
cycle= 8 E= -835.378162007175  delta_E= -1.94e-06  |g|= 0.00104  |ddm|= 0.00448
    CPU time for cycle= 8     38.76 sec, wall time     15.88 sec
  HOMO = -0.115689223382561  LUMO = -0.0152914890174052
  mo_energy =
[-10.03975051 -10.03696931 -10.0366916  -10.03526686 -10.0330881
 -10.0300431  -10.02740321 -10.02494669 -10.02478084 -10.02251948
 -10.01834899 -10.01680159 -10.0164593  -10.01461968 -10.01374783
 -10.01224833 -10.01065439 -10.0102728  -10.00810833 -10.00769704
 -10.00073526  -9.99927146  -0.88371912  -0.86224797  -0.82550578
  -0.76576538  -0.76207632  -0.75024792  -0.74244189  -0.70841042
  -0.70262896  -0.68670756  -0.64939865  -0.62891589  -0.60704183
  -0.59160271  -0.57579093  -0.55900171  -0.5476967   -0.53220713
  -0.5126486   -0.48888198  -0.4679335   -0.45343636  -0.44345146
  -0.44150174  -0.42051061  -0.41125895  -0.40198673  -0.39180725
  -0.3873377   -0.38323017  -0.37392186  -0.37076245  -0.36499598
  -0.34435499  -0.33840633  -0.32561219  -0.320628    -0.31079473
  -0.2764294   -0.27224313  -0.26977413  -0.26264081  -0.25484928
  -0.2451358   -0.23760873  -0.22376447  -0.21463218  -0.19178369
  -0.18195971  -0.15786869  -0.11568922  -0.01529149   0.02237786
   0.06019799   0.06375889   0.09165038   0.13261113   0.14650358
   0.17668087   0.18526425   0.20423875   0.21073539   0.22953015
   0.23896785   0.24599333   0.2596553    0.28046497   0.29918961
   0.33011814   0.33411034   0.34441164   0.35656842   0.36669832
   0.38095527   0.4092393    0.42037552   0.42562782   0.45517128
   0.47525795   0.5042407    0.53129124   0.54870487   0.55323466
   0.56109525   0.57249446   0.58416739   0.59643062   0.60343819
   0.60772821   0.62748485   0.6919235    0.71002965   0.74559864
   0.75329102   0.78377049   0.89255117   0.89947108   0.928789
   0.93884474   0.99093778   1.0222488    1.0376886 ]
nelec by numeric integration = 145.9999966385945
    CPU time for vxc     38.22 sec, wall time     15.83 sec
E1 = -4089.024190965276  Ecoul = 1889.234514669905  Exc = -124.59643695076933
cycle= 9 E= -835.378162329119  delta_E= -3.22e-07  |g|= 0.000396  |ddm|= 0.00167
    CPU time for cycle= 9     38.53 sec, wall time     15.88 sec
  HOMO = -0.115696597018579  LUMO = -0.0152912723889304
  mo_energy =
[-10.03978944 -10.03697477 -10.03672304 -10.03524819 -10.03306538
 -10.03006351 -10.02747926 -10.02494065 -10.0248301  -10.02249106
 -10.01848829 -10.01681123 -10.0164507  -10.01459376 -10.0137239
 -10.01223349 -10.01072018 -10.01027869 -10.00809003 -10.00768672
 -10.00075102  -9.99929791  -0.88373489  -0.86226662  -0.82550275
  -0.76577829  -0.76208471  -0.75025905  -0.74245691  -0.70842157
  -0.70264075  -0.68671442  -0.64940102  -0.6289264   -0.60704966
  -0.5916068   -0.57581319  -0.55901161  -0.54770924  -0.53221742
  -0.51265185  -0.48888077  -0.46794011  -0.45344215  -0.44345506
  -0.44151838  -0.42053342  -0.41126347  -0.40199418  -0.39181412
  -0.38734796  -0.38323729  -0.3739282   -0.37078014  -0.36500037
  -0.34435005  -0.33841559  -0.32561262  -0.32062451  -0.31079405
  -0.27645011  -0.27225243  -0.26978282  -0.26265352  -0.2548545
  -0.24514952  -0.23761045  -0.223776    -0.2146343   -0.19179491
  -0.18197644  -0.15787859  -0.1156966   -0.01529127   0.02237504
   0.06018206   0.06373445   0.0916358    0.13260468   0.14648944
   0.17669478   0.18525856   0.20421542   0.2107424    0.22951624
   0.23897309   0.24599976   0.25965618   0.28046467   0.29917519
   0.33010913   0.33412488   0.34441001   0.35656673   0.36667671
   0.38095531   0.4092214    0.42037479   0.42561388   0.45512796
   0.4752559    0.50423268   0.5312821    0.54870368   0.55320068
   0.56107736   0.57247909   0.584173     0.59641287   0.60343348
   0.60771485   0.62747075   0.69191117   0.71002      0.74558546
   0.75328844   0.7837588    0.89252991   0.89945705   0.92876927
   0.93883736   0.99092677   1.02225842   1.0376817 ]
nelec by numeric integration = 145.9999966386045
    CPU time for vxc     37.99 sec, wall time     15.70 sec
E1 = -4089.026029932342  Ecoul = 1889.2363876322881  Exc = -124.59647099553015
cycle= 10 E= -835.378162378563  delta_E= -4.94e-08  |g|= 0.000126  |ddm|= 0.000671
    CPU time for cycle= 10     38.46 sec, wall time     15.78 sec
  HOMO = -0.115699288250176  LUMO = -0.0152927484692281
  mo_energy =
[-10.03976856 -10.03695255 -10.03673217 -10.03527401 -10.03309191
 -10.03004826 -10.02746593 -10.02495613 -10.02482144 -10.02248047
 -10.01847929 -10.01682254 -10.01645641 -10.01460306 -10.01373297
 -10.01223718 -10.01069572 -10.01025514 -10.00811164 -10.00768585
 -10.00077255  -9.99930614  -0.88373249  -0.86225755  -0.82551297
  -0.76577656  -0.76208156  -0.75025863  -0.74245744  -0.70842149
  -0.70264463  -0.68671438  -0.64940205  -0.6289264   -0.6070505
  -0.59160739  -0.57581089  -0.55901455  -0.54770584  -0.53221702
  -0.51265233  -0.48888059  -0.46793977  -0.45344209  -0.44345382
  -0.44151662  -0.42053017  -0.41126654  -0.40199258  -0.39181553
  -0.38734759  -0.38323697  -0.37392591  -0.37077344  -0.36500316
  -0.34435279  -0.33841787  -0.32561938  -0.32062647  -0.31079805
  -0.27645059  -0.27224987  -0.2697833   -0.26265255  -0.25485617
  -0.24515046  -0.23761415  -0.22377621  -0.21463524  -0.19179619
  -0.18198053  -0.15787875  -0.11569929  -0.01529275   0.02237514
   0.06018037   0.06373298   0.09163632   0.13260273   0.14648972
   0.17668708   0.18526152   0.2042182    0.21073505   0.22951067
   0.23896421   0.2459931    0.25965937   0.28046366   0.29918019
   0.33011032   0.334119     0.34440758   0.35656382   0.3666799
   0.38095525   0.40922486   0.4203763    0.42561554   0.45513355
   0.47525237   0.50423213   0.53128192   0.54870573   0.55320005
   0.56107786   0.57247521   0.58417039   0.59641067   0.603431
   0.60771589   0.62747455   0.6919123    0.71002131   0.74558962
   0.75329471   0.78375379   0.89253861   0.89946278   0.92878005
   0.93884086   0.99092284   1.02224308   1.03768066]
nelec by numeric integration = 145.99999663857164
    CPU time for vxc     37.97 sec, wall time     15.71 sec
E1 = -4089.0257304627994  Ecoul = 1889.236086341317  Exc = -124.59646917903625
cycle= 11 E= -835.378162383497  delta_E= -4.93e-09  |g|= 5.26e-05  |ddm|= 0.000235
    CPU time for cycle= 11     38.31 sec, wall time     15.76 sec
  HOMO = -0.115697655295426  LUMO = -0.0152902483195687
  mo_energy =
[-10.03978072 -10.03696372 -10.03672554 -10.03526513 -10.03308295
 -10.03005664 -10.0274603  -10.02495215 -10.02482375 -10.02247844
 -10.01847598 -10.01681227 -10.0164532  -10.01460333 -10.01373334
 -10.01223368 -10.01069483 -10.01025646 -10.00810333 -10.00768386
 -10.00076672  -9.99930884  -0.88372932  -0.8622629   -0.82550742
  -0.76577835  -0.7620797   -0.75025806  -0.74245536  -0.70842166
  -0.70264308  -0.68671212  -0.64939985  -0.62892505  -0.60704805
  -0.59160547  -0.57581203  -0.559013    -0.54770764  -0.53221546
  -0.51265125  -0.48887877  -0.46793991  -0.45344029  -0.44345256
  -0.4415156   -0.42053193  -0.41126538  -0.40198988  -0.39181382
  -0.38734547  -0.38323627  -0.37392477  -0.37077751  -0.36500163
  -0.34435152  -0.33841583  -0.32561594  -0.32062647  -0.31079735
  -0.27645129  -0.27224855  -0.26978322  -0.26265402  -0.25485611
  -0.24515027  -0.23761288  -0.22377435  -0.21463405  -0.19179577
  -0.18197941  -0.15787712  -0.11569766  -0.01529025   0.02237744
   0.0601822    0.06373344   0.0916377    0.13260284   0.14648842
   0.17668827   0.18526373   0.20421616   0.2107353    0.22951035
   0.23896813   0.24599655   0.25966033   0.28046223   0.29917684
   0.3301129    0.33412174   0.34440863   0.35656469   0.36667759
   0.38095401   0.40922746   0.42037828   0.42561819   0.45513272
   0.47525378   0.50423373   0.53128408   0.54870783   0.55320131
   0.5610801    0.57247755   0.58417308   0.5964116    0.60343198
   0.60771834   0.62747756   0.69191255   0.71002138   0.74559243
   0.75329003   0.78375546   0.8925341    0.89946468   0.92877365
   0.93884346   0.9909243    1.02224992   1.03768372]
nelec by numeric integration = 145.9999966385705
    CPU time for vxc     37.81 sec, wall time     15.71 sec
E1 = -4089.0256388017124  Ecoul = 1889.2359915146396  Exc = -124.59646601432377
cycle= 12 E= -835.378162384375  delta_E= -8.78e-10  |g|= 2.32e-05  |ddm|= 0.000104
    CPU time for cycle= 12     38.36 sec, wall time     15.79 sec
  HOMO = -0.115698141077762  LUMO = -0.0152904149563004
  mo_energy =
[-10.03977464 -10.03695975 -10.03672494 -10.03526449 -10.03308208
 -10.03005352 -10.02746312 -10.02494798 -10.02482111 -10.0224794
 -10.01847471 -10.01681617 -10.01645233 -10.0146     -10.01372995
 -10.01223285 -10.01069913 -10.01025857 -10.008107   -10.00768378
 -10.00076395  -9.9993021   -0.88372989  -0.86225987  -0.82550764
  -0.76577612  -0.76208027  -0.75025687  -0.74245452  -0.7084201
  -0.70264174  -0.68671236  -0.64940013  -0.62892473  -0.60704816
  -0.59160557  -0.57581023  -0.55901182  -0.54770623  -0.5322152
  -0.51265109  -0.48887886  -0.46793881  -0.45344038  -0.44345268
  -0.44151526  -0.42052984  -0.4112647   -0.40199148  -0.39181316
  -0.3873455   -0.38323567  -0.37392491  -0.37077501  -0.36500079
  -0.34435186  -0.33841567  -0.32561582  -0.32062685  -0.31079728
  -0.27644907  -0.27224878  -0.26978225  -0.26265198  -0.2548553
  -0.24514872  -0.23761228  -0.22377418  -0.2146343   -0.19179431
  -0.181978    -0.15787687  -0.11569814  -0.01529041   0.02237714
   0.06018315   0.06373551   0.09163855   0.13260441   0.14649048
   0.17668749   0.18526315   0.20421774   0.21073545   0.22951398
   0.23896782   0.2459957    0.25965936   0.28046355   0.29917884
   0.33011231   0.33412162   0.34440931   0.3565655    0.3666797
   0.38095531   0.40922613   0.42037781   0.42561706   0.45513336
   0.47525405   0.50423365   0.53128381   0.54870752   0.55320318
   0.56108017   0.57247857   0.58417332   0.59641347   0.60343313
   0.60771771   0.62747669   0.69191342   0.71002207   0.74559177
   0.75329313   0.78375741   0.89253667   0.89946404   0.92877682
   0.93884303   0.99092671   1.02224987   1.03768355]
nelec by numeric integration = 145.99999663856775
    CPU time for vxc     38.29 sec, wall time     15.76 sec
E1 = -4089.025573298499  Ecoul = 1889.2359240893877  Exc = -124.59646409245117
cycle= 13 E= -835.378162384541  delta_E= -1.66e-10  |g|= 1.13e-05  |ddm|= 4.68e-05
    CPU time for cycle= 13     38.71 sec, wall time     15.83 sec
  HOMO = -0.115698240865165  LUMO = -0.015290416356185
  mo_energy =
[-10.0397754  -10.03696023 -10.03672677 -10.03526567 -10.03308332
 -10.03005421 -10.02746417 -10.02494922 -10.02482229 -10.02248004
 -10.01847464 -10.01681593 -10.01645464 -10.01460117 -10.01373114
 -10.01223492 -10.01069803 -10.01025989 -10.00810486 -10.00768485
 -10.00076389  -9.99930327  -0.88373117  -0.86226054  -0.82550829
  -0.76577661  -0.76208125  -0.75025751  -0.74245527  -0.7084207
  -0.70264199  -0.68671269  -0.64940037  -0.62892516  -0.6070486
  -0.59160614  -0.57581054  -0.55901227  -0.54770652  -0.53221577
  -0.51265161  -0.48887952  -0.46793929  -0.45344073  -0.44345312
  -0.44151559  -0.42053027  -0.41126491  -0.40199141  -0.39181384
  -0.38734628  -0.38323623  -0.37392552  -0.37077553  -0.36500125
  -0.34435191  -0.33841605  -0.32561633  -0.32062701  -0.31079732
  -0.27644952  -0.27224958  -0.26978263  -0.26265241  -0.25485557
  -0.24514924  -0.23761249  -0.22377486  -0.2146348   -0.19179498
  -0.18197821  -0.15787725  -0.11569824  -0.01529042   0.02237678
   0.06018259   0.06373509   0.09163793   0.13260388   0.14649007
   0.17668796   0.18526213   0.20421758   0.21073533   0.22951324
   0.2389675    0.24599567   0.25965895   0.28046335   0.29917839
   0.33011147   0.33412131   0.34440885   0.35656523   0.36667939
   0.38095507   0.40922588   0.42037707   0.42561679   0.45513343
   0.47525397   0.50423339   0.53128343   0.54870673   0.55320275
   0.5610798    0.57247827   0.58417257   0.59641299   0.6034329
   0.60771732   0.62747601   0.69191282   0.71002177   0.74559064
   0.75329258   0.78375718   0.8925359    0.89946286   0.92877629
   0.93884168   0.990926     1.02224907   1.03768217]
nelec by numeric integration = 145.99999663857034
    CPU time for vxc     38.08 sec, wall time     15.76 sec
E1 = -4089.0256492346707  Ecoul = 1889.2360021957873  Exc = -124.59646626271385
cycle= 14 E= -835.378162384575  delta_E= -3.46e-11  |g|= 5.79e-06  |ddm|= 2.16e-05
    CPU time for cycle= 14     38.77 sec, wall time     15.86 sec
  HOMO = -0.115698500070658  LUMO = -0.0152907268328997
  mo_energy =
[-10.03977636 -10.03696093 -10.03672526 -10.03526549 -10.03308303
 -10.03005501 -10.02746251 -10.02494916 -10.02482258 -10.02247919
 -10.01847571 -10.01681283 -10.01645287 -10.01460064 -10.01373063
 -10.01223365 -10.01069952 -10.01025841 -10.00810939 -10.0076843
 -10.00076487  -9.99930428  -0.88373008  -0.86226103  -0.82550806
  -0.76577708  -0.76208032  -0.75025726  -0.74245503  -0.70842081
  -0.70264245  -0.6867127   -0.64940037  -0.62892533  -0.60704842
  -0.59160589  -0.57581091  -0.55901226  -0.54770712  -0.53221543
  -0.51265118  -0.48887908  -0.46793921  -0.45344097  -0.44345286
  -0.44151591  -0.42053073  -0.41126508  -0.40199158  -0.39181346
  -0.38734569  -0.38323613  -0.37392527  -0.37077597  -0.36500124
  -0.34435159  -0.33841594  -0.32561624  -0.32062636  -0.31079687
  -0.27644991  -0.27224896  -0.26978266  -0.26265287  -0.2548557
  -0.24514917  -0.23761283  -0.22377443  -0.2146342   -0.19179487
  -0.18197882  -0.15787726  -0.1156985   -0.01529073   0.02237687
   0.06018275   0.06373458   0.09163808   0.13260403   0.14648948
   0.17668859   0.1852631    0.20421715   0.21073601   0.22951277
   0.23896752   0.24599556   0.25965943   0.28046331   0.29917793
   0.3301122    0.3341221    0.34440894   0.35656509   0.366679
   0.38095504   0.40922592   0.42037754   0.42561665   0.45513304
   0.47525335   0.50423316   0.53128372   0.5487072    0.55320238
   0.56108001   0.57247787   0.58417331   0.5964127    0.60343224
   0.60771729   0.62747651   0.6919129    0.71002125   0.74559153
   0.75329227   0.78375667   0.89253545   0.89946388   0.92877566
   0.93884274   0.99092587   1.02224932   1.03768334]
nelec by numeric integration = 145.99999663856707
    CPU time for vxc     37.87 sec, wall time     15.62 sec
E1 = -4089.0256238096135  Ecoul = 1889.2359762561941  Exc = -124.59646574806413
Extra cycle  E= -835.378162384462  delta_E= 1.14e-10  |g|= 1.8e-05  |ddm|= 3.66e-05
    CPU time for scf_cycle    623.74 sec, wall time    254.83 sec
    CPU time for SCF    623.74 sec, wall time    254.83 sec
converged SCF energy = -835.378162384462
nelec by numeric integration = 145.99999663856707
    CPU time for vxc     38.07 sec, wall time     15.78 sec
 ** Mulliken pop  **
pop of  0 C 1s            1.99040
pop of  0 C 2s            1.08983
pop of  0 C 2px           0.99727
pop of  0 C 2py           0.97939
pop of  0 C 2pz           0.94609
pop of  1 C 1s            1.99050
pop of  1 C 2s            1.04755
pop of  1 C 2px           1.03277
pop of  1 C 2py           0.99875
pop of  1 C 2pz           0.97318
pop of  2 C 1s            1.99110
pop of  2 C 2s            1.06105
pop of  2 C 2px           1.01366
pop of  2 C 2py           1.00749
pop of  2 C 2pz           0.99362
pop of  3 C 1s            1.99090
pop of  3 C 2s            1.17760
pop of  3 C 2px           1.00739
pop of  3 C 2py           0.91916
pop of  3 C 2pz           0.96907
pop of  4 C 1s            1.99137
pop of  4 C 2s            1.06140
pop of  4 C 2px           1.00037
pop of  4 C 2py           1.01144
pop of  4 C 2pz           0.97885
pop of  5 C 1s            1.99163
pop of  5 C 2s            1.23346
pop of  5 C 2px           0.92448
pop of  5 C 2py           0.90620
pop of  5 C 2pz           0.93952
pop of  6 C 1s            1.99079
pop of  6 C 2s            1.13154
pop of  6 C 2px           0.98663
pop of  6 C 2py           1.01135
pop of  6 C 2pz           0.97496
pop of  7 C 1s            1.99096
pop of  7 C 2s            1.09958
pop of  7 C 2px           1.00857
pop of  7 C 2py           1.03436
pop of  7 C 2pz           0.95813
pop of  8 C 1s            1.99140
pop of  8 C 2s            1.10105
pop of  8 C 2px           0.99064
pop of  8 C 2py           0.94055
pop of  8 C 2pz           0.98477
pop of  9 C 1s            1.99109
pop of  9 C 2s            1.09782
pop of  9 C 2px           1.01513
pop of  9 C 2py           0.94721
pop of  9 C 2pz           0.99735
pop of  10 C 1s           1.99157
pop of  10 C 2s           1.22850
pop of  10 C 2px          0.98139
pop of  10 C 2py          0.90531
pop of  10 C 2pz          0.97219
pop of  11 C 1s           1.99171
pop of  11 C 2s           1.24919
pop of  11 C 2px          0.98191
pop of  11 C 2py          0.90536
pop of  11 C 2pz          0.89304
pop of  12 C 1s           1.99109
pop of  12 C 2s           1.14513
pop of  12 C 2px          0.99362
pop of  12 C 2py          0.95410
pop of  12 C 2pz          0.92500
pop of  13 C 1s           1.99134
pop of  13 C 2s           1.21243
pop of  13 C 2px          0.96829
pop of  13 C 2py          0.92197
pop of  13 C 2pz          0.90665
pop of  14 C 1s           1.99090
pop of  14 C 2s           1.07959
pop of  14 C 2px          0.99892
pop of  14 C 2py          1.00801
pop of  14 C 2pz          0.99648
pop of  15 C 1s           1.99094
pop of  15 C 2s           1.15023
pop of  15 C 2px          0.99683
pop of  15 C 2py          0.94573
pop of  15 C 2pz          0.98195
pop of  16 C 1s           1.99074
pop of  16 C 2s           1.09078
pop of  16 C 2px          1.02670
pop of  16 C 2py          0.94931
pop of  16 C 2pz          0.95865
pop of  17 C 1s           1.99066
pop of  17 C 2s           1.09270
pop of  17 C 2px          0.98898
pop of  17 C 2py          0.96047
pop of  17 C 2pz          0.95815
pop of  18 C 1s           1.99152
pop of  18 C 2s           1.23741
pop of  18 C 2px          0.91585
pop of  18 C 2py          0.91578
pop of  18 C 2pz          0.96025
pop of  19 C 1s           1.99123
pop of  19 C 2s           1.16612
pop of  19 C 2px          1.05055
pop of  19 C 2py          0.93010
pop of  19 C 2pz          0.99345
pop of  20 C 1s           1.99211
pop of  20 C 2s           1.13433
pop of  20 C 2px          1.04902
pop of  20 C 2py          1.03661
pop of  20 C 2pz          0.96797
pop of  21 C 1s           1.99150
pop of  21 C 2s           1.21910
pop of  21 C 2px          0.95618
pop of  21 C 2py          0.99924
pop of  21 C 2pz          0.91076
pop of  22 H 1s           0.95407
pop of  23 H 1s           0.90870
pop of  24 H 1s           0.97313
pop of  25 H 1s           0.92824
pop of  26 H 1s           0.89113
pop of  27 H 1s           0.90232
pop of  28 H 1s           0.90149
pop of  29 H 1s           0.96473
pop of  30 H 1s           0.93429
pop of  31 H 1s           0.91167
pop of  32 H 1s           0.93118
pop of  33 H 1s           0.88313
pop of  34 H 1s           0.87659
pop of  35 H 1s           0.91432
 ** Mulliken atomic charges  **
charge of    0C =     -0.00298
charge of    1C =     -0.04276
charge of    2C =     -0.06692
charge of    3C =     -0.06412
charge of    4C =     -0.04343
charge of    5C =      0.00470
charge of    6C =     -0.09528
charge of    7C =     -0.09160
charge of    8C =     -0.00840
charge of    9C =     -0.04861
charge of   10C =     -0.07897
charge of   11C =     -0.02120
charge of   12C =     -0.00893
charge of   13C =     -0.00068
charge of   14C =     -0.07390
charge of   15C =     -0.06568
charge of   16C =     -0.01618
charge of   17C =      0.00904
charge of   18C =     -0.02082
charge of   19C =     -0.13146
charge of   20C =     -0.18005
charge of   21C =     -0.07679
charge of   22H =      0.04593
charge of   23H =      0.09130
charge of   24H =      0.02687
charge of   25H =      0.07176
charge of   26H =      0.10887
charge of   27H =      0.09768
charge of   28H =      0.09851
charge of   29H =      0.03527
charge of   30H =      0.06571
charge of   31H =      0.08833
charge of   32H =      0.06882
charge of   33H =      0.11687
charge of   34H =      0.12341
charge of   35H =      0.08568
Dipole moment(X, Y, Z, Debye):  0.07641,  0.36557, -0.30509
nelec by numeric integration = 145.99999663856707
    CPU time for vxc     38.38 sec, wall time     15.92 sec
E1 = -4089.0256238096135  Ecoul = 1889.2359762561944  Exc = -124.59646574806413
nelec by numeric integration = 145.99999663856707
    CPU time for vxc     37.53 sec, wall time     15.68 sec
E1 = -4089.0256238096135  Ecoul = 1889.2359762561941  Exc = -124.59646574806413
