System: uname_result(system='Linux', node='cosmopc18', release='5.15.0-97-generic', version='#107-Ubuntu SMP Wed Feb 7 13:26:48 UTC 2024', machine='x86_64')  Threads 4
Python 3.11.8 (main, Feb 26 2024, 21:39:34) [GCC 11.2.0]
numpy 1.26.4  scipy 1.11.4
Date: Tue Apr  9 16:33:58 2024
PySCF version 2.3.0
PySCF path  /home/saade/miniconda3/envs/tutorial/lib/python3.11/site-packages/pyscf

[ENV] PYSCFAD_BACKEND torch
[CONFIG] conf_file None
[INPUT] verbose = 5
[INPUT] max_memory = 4000 
[INPUT] num. atoms = 36
[INPUT] num. electrons = 146
[INPUT] charge = 0
[INPUT] spin (= nelec alpha-beta = 2S) = 0
[INPUT] symmetry False subgroup None
[INPUT] Mole.unit = angstrom
[INPUT] Symbol           X                Y                Z      unit          X                Y                Z       unit  Magmom
[INPUT]  1 C     -0.024313000000   3.885768000000   0.771063000000 AA   -0.045944911267   7.343037303599   1.457097894786 Bohr   0.0
[INPUT]  2 C     -0.048877000000   3.778865000000  -0.818130000000 AA   -0.092364143790   7.141019911705  -1.546041634290 Bohr   0.0
[INPUT]  3 C     -0.018004000000   5.039431000000   1.439612000000 AA   -0.034022629147   9.523144413643   2.720472405637 Bohr   0.0
[INPUT]  4 C      0.046644000000   2.417247000000   1.549059000000 AA    0.088144385354   4.567934805427   2.927297260793 Bohr   0.0
[INPUT]  5 C      0.105546000000   4.857694000000  -1.215978000000 AA    0.199453033543   9.179711256943  -2.297865393496 Bohr   0.0
[INPUT]  6 C     -0.046797000000   2.491832000000  -1.484900000000 AA   -0.088433513451   4.708880028427  -2.806054322367 Bohr   0.0
[INPUT]  7 C     -0.011031000000   6.150973000000  -0.652603000000 AA   -0.020845568880  11.623654369594  -1.233240938070 Bohr   0.0
[INPUT]  8 C      0.177398000000   6.369015000000   0.730360000000 AA    0.335233635046  12.035694033247   1.380180372337 Bohr   0.0
[INPUT]  9 C      0.102471000000   1.167170000000   0.823513000000 AA    0.193642125710   2.205631640809   1.556214030019 Bohr   0.0
[INPUT] 10 C     -0.013043000000   1.387435000000  -0.834525000000 AA   -0.024647697843   2.621872165636  -1.577023694103 Bohr   0.0
[INPUT] 11 C      0.031312000000   0.001381000000   1.385154000000 AA    0.059171104412   0.002609711778   2.617561700346 Bohr   0.0
[INPUT] 12 C     -0.031477000000  -0.102513000000  -1.315262000000 AA   -0.059482909223  -0.193721494208  -2.485484962048 Bohr   0.0
[INPUT] 13 C     -0.062223000000  -1.135256000000   0.709843000000 AA   -0.117584428649  -2.145322921269   1.341408861440 Bohr   0.0
[INPUT] 14 C      0.016163000000  -1.250515000000  -0.649790000000 AA    0.030543643351  -2.363130864660  -1.227925138481 Bohr   0.0
[INPUT] 15 C      0.117604000000  -2.478084000000   1.380034000000 AA    0.222239351153  -4.682900073667   2.607886302588 Bohr   0.0
[INPUT] 16 C      0.096321000000  -2.405918000000  -1.372411000000 AA    0.182020310044  -4.546526098161  -2.593480920340 Bohr   0.0
[INPUT] 17 C      0.080410000000  -3.599376000000   0.593509000000 AA    0.151952877676  -6.801834859332   1.121569462464 Bohr   0.0
[INPUT] 18 C      0.029543000000  -3.623815000000  -0.798039000000 AA    0.055828178898  -6.848017876091  -1.508075146722 Bohr   0.0
[INPUT] 19 C     -0.023736000000  -4.877132000000   1.251393000000 AA   -0.044854539293  -9.216443753352   2.364790044198 Bohr   0.0
[INPUT] 20 C      0.176491000000  -4.951368000000  -1.527538000000 AA    0.333519653451  -9.356729461935  -2.886628464866 Bohr   0.0
[INPUT] 21 C      0.169877000000  -6.090108000000   0.662230000000 AA    0.321021004863 -11.508636189023   1.251433331471 Bohr   0.0
[INPUT] 22 C      0.112712000000  -6.135111000000  -0.961599000000 AA    0.212994810952 -11.593679533806  -1.817158751656 Bohr   0.0
[INPUT] 23 H     -0.023688000000   4.896627000000   2.543703000000 AA   -0.044763832439   9.253283964151   4.806902012235 Bohr   0.0
[INPUT] 24 H      0.127365000000   2.574515000000   2.423557000000 AA    0.240684967855   4.865128253585   4.579858977273 Bohr   0.0
[INPUT] 25 H     -0.021810000000   4.973085000000  -2.468893000000 AA   -0.041214926777   9.397768644183  -4.665531600856 Bohr   0.0
[INPUT] 26 H     -0.106615000000   2.417113000000  -2.545579000000 AA   -0.201473150771   4.567681582126  -4.810447138444 Bohr   0.0
[INPUT] 27 H     -0.017082000000   7.136865000000  -1.043273000000 AA   -0.032280301660  13.486720237994  -1.971500243153 Bohr   0.0
[INPUT] 28 H      0.118649000000   7.044408000000   1.136929000000 AA    0.224214114954  13.312001829695   2.148484433076 Bohr   0.0
[INPUT] 29 H     -0.148213000000  -0.073547000000   2.384416000000 AA   -0.280081978100  -0.138983687283   4.505893207031 Bohr   0.0
[INPUT] 30 H      0.060584000000  -0.105473000000  -2.468426000000 AA    0.114487167531  -0.199315083536  -4.664649098756 Bohr   0.0
[INPUT] 31 H     -0.021471000000  -2.345315000000   2.468357000000 AA   -0.040574309621  -4.432003025834   4.664518707653 Bohr   0.0
[INPUT] 32 H      0.232890000000  -2.275769000000  -2.472582000000 AA    0.440098317150  -4.300580132775  -4.672502800529 Bohr   0.0
[INPUT] 33 H      0.061423000000  -4.911654000000   2.526013000000 AA    0.116072647749  -9.281680878624   4.773472757091 Bohr   0.0
[INPUT] 34 H     -0.069289000000  -4.812864000000  -2.434361000000 AA   -0.130937233445  -9.094994834779  -4.600275578322 Bohr   0.0
[INPUT] 35 H      0.147465000000  -7.136467000000   1.180931000000 AA    0.278668462959 -13.485968126996   2.231636162009 Bohr   0.0
[INPUT] 36 H     -0.090416000000  -7.226763000000  -1.200374000000 AA   -0.170861477279 -13.656602837140  -2.268378107049 Bohr   0.0
[INPUT] ---------------- BASIS SET ---------------- 
[INPUT] l, kappa, [nprim/nctr], expnt,             c_1 c_2 ...
[INPUT] H
[INPUT] 0    0    [3    /1   ]  3.42525091        0.15432897
                                0.62391373        0.53532814
                                0.1688554         0.44463454
[INPUT] C
[INPUT] 0    0    [3    /1   ]  71.616837         0.15432897
                                13.045096         0.53532814
                                3.5305122         0.44463454
[INPUT] 0    0    [3    /1   ]  2.9412494         -0.09996723
                                0.6834831         0.39951283
                                0.2222899         0.70011547
[INPUT] 1    0    [3    /1   ]  2.9412494         0.15591627
                                0.6834831         0.60768372
                                0.2222899         0.39195739

nuclear repulsion = 1488.26096583697
number of shells = 80
number of NR pGTOs = 372
number of NR cGTOs = 124
basis = sto3g
ecp = {}
CPU time:     60280.26
atom C rad-grids = 99, ang-grids = [ 50  50  50  50  50  50  50  50  50  50  50  50  50  50  50  50  50  50
  50  50  50  50  50  50  50  50  50  50  50  50  50  86  86  86  86  86
  86  86  86  86  86  86  86 434 434 434 434 434 434 434 434 434 590 590
 590 590 590 590 590 590 590 590 590 590 590 590 590 590 590 590 590 590
 590 590 590 590 590 590 590 434 434 434 434 434 434 434 434 434 434 434
 434 434 434 434 434 434 434 434 434]
atom H rad-grids = 99, ang-grids = [ 50  50  50  50  50  50  50  50  50  50  50  50  50  50  50  50  50  50
  50  50  50  50  50  50  50  50  50  50  86  86  86  86  86  86  86 434
 434 434 434 434 434 434 434 590 590 590 590 590 590 590 590 590 590 590
 590 590 590 590 590 590 590 590 590 590 590 590 590 590 590 434 434 434
 434 434 434 434 434 434 434 434 434 434 434 434 434 434 434 434 434 434
 434 434 434 434 434 434 434 434 434]
tot_boxes 5440, boxes in each direction [ 8 30 15]
Padding 0 grids
tot grids = 1157832


******** <class 'pyscf.dft.rks.RKS'> ********
method = RKS
initial guess = minao
damping factor = 0
level_shift factor = 0
DIIS = <class 'pyscf.scf.diis.CDIIS'>
diis_start_cycle = 1
diis_space = 8
SCF conv_tol = 1e-10
SCF conv_tol_grad = None
SCF max_cycles = 50
direct_scf = True
direct_scf_tol = 1e-13
chkfile to save SCF result = /home/saade/mlelec/tutorials/tmp2ookeb59
max_memory 4000 MB (current use 690 MB)
XC library pyscf.dft.libxc version 6.1.0
    S. Lehtola, C. Steigemann, M. J.T. Oliveira, and M. A.L. Marques.,  SoftwareX 7, 1–5 (2018)
XC functionals = b3lypg
    P. J. Stephens, F. J. Devlin, C. F. Chabalowski, and M. J. Frisch.,  J. Phys. Chem. 98, 11623 (1994)
radial grids: 
    Treutler-Ahlrichs [JCP 102, 346 (1995); DOI:10.1063/1.469408] (M4) radial grids
    
becke partition: Becke, JCP 88, 2547 (1988); DOI:10.1063/1.454033
pruning grids: <function nwchem_prune at 0x7f9db5616ca0>
grids dens level: 3
symmetrized grids: False
atomic radii adjust function: <function treutler_atomic_radii_adjust at 0x7f9db5617380>
User specified grid scheme (99, 590)
small_rho_cutoff = 1e-07
Set gradient conv threshold to 1e-05
Initial guess from minao.
nelec by numeric integration = 145.26436501047527
    CPU time for vxc     37.02 sec, wall time     15.60 sec
E1 = -4076.5379327812125  Ecoul = 1873.0361864927231  Exc = -126.04064079009626
init E= -841.281421241614
cond(S) = 23.250155280040346
    CPU time for initialize scf     46.81 sec, wall time     17.95 sec
  HOMO = -0.206484933131833  LUMO = -0.15699317944069
  mo_energy =
[-1.01345848e+01 -1.01328440e+01 -1.01301308e+01 -1.01281871e+01
 -1.01193198e+01 -1.01155596e+01 -1.01145548e+01 -1.01099522e+01
 -1.01074113e+01 -1.01072758e+01 -1.01028148e+01 -1.01027576e+01
 -1.01008178e+01 -1.00959181e+01 -1.00951557e+01 -1.00931340e+01
 -1.00868071e+01 -1.00857399e+01 -1.00824330e+01 -1.00798979e+01
 -1.00770176e+01 -1.00687655e+01 -1.10076273e+00 -1.06680538e+00
 -1.03031748e+00 -9.71768639e-01 -9.64853596e-01 -9.30299374e-01
 -9.07745572e-01 -8.98534234e-01 -8.70608206e-01 -8.50792583e-01
 -7.95081934e-01 -7.74834205e-01 -7.32222045e-01 -7.10603635e-01
 -6.92778334e-01 -6.69094827e-01 -6.65972408e-01 -6.48046811e-01
 -5.99029647e-01 -5.86005986e-01 -5.72281686e-01 -5.55118879e-01
 -5.39931815e-01 -5.28734790e-01 -5.18643408e-01 -5.09532201e-01
 -5.01098730e-01 -4.85412453e-01 -4.76892784e-01 -4.73367733e-01
 -4.62893252e-01 -4.51498161e-01 -4.45859650e-01 -4.42646805e-01
 -4.24527546e-01 -4.15344779e-01 -4.11194654e-01 -4.03898657e-01
 -3.97777794e-01 -3.69947107e-01 -3.60451419e-01 -3.58145898e-01
 -3.36622480e-01 -3.30042469e-01 -3.19713163e-01 -3.08813295e-01
 -3.05712463e-01 -2.97078546e-01 -2.73593789e-01 -2.59790793e-01
 -2.06484933e-01 -1.56993179e-01 -8.87169580e-02 -7.91448201e-02
 -3.62534990e-02 -2.43932436e-02 -2.25581418e-03  2.45297028e-02
  3.14969101e-02  9.32377922e-02  9.99650072e-02  1.06169465e-01
  1.33596382e-01  1.44282353e-01  1.56461574e-01  1.64339770e-01
  1.75168809e-01  1.96846636e-01  2.12879769e-01  2.17680184e-01
  2.42039033e-01  2.55111397e-01  2.62110312e-01  2.67768971e-01
  2.74365403e-01  3.00841601e-01  3.08110609e-01  3.30402387e-01
  3.54718495e-01  3.59003121e-01  3.82956352e-01  3.90677788e-01
  4.12273408e-01  4.46303705e-01  4.64564105e-01  4.74007864e-01
  4.84754717e-01  5.03271960e-01  5.17205901e-01  5.35688564e-01
  5.47869248e-01  5.61611162e-01  5.80695600e-01  6.03940093e-01
  6.17724847e-01  6.31293407e-01  6.63630324e-01  7.06214946e-01
  7.33690885e-01  7.53938770e-01  8.34473725e-01  9.03579976e-01]
nelec by numeric integration = 145.9999999956061
    CPU time for vxc     38.17 sec, wall time     15.82 sec
E1 = -4091.3212153740474  Ecoul = 1891.985204969593  Exc = -124.68463902007102
cycle= 1 E= -835.759683587554  delta_E= 5.52  |g|= 0.269  |ddm|= 9.25
    CPU time for cycle= 1     38.45 sec, wall time     15.87 sec
  HOMO = -0.0842433779701673  LUMO = -0.00304472810194478
  mo_energy =
[-1.00379460e+01 -1.00257239e+01 -1.00254642e+01 -1.00157116e+01
 -1.00091599e+01 -1.00059107e+01 -1.00035258e+01 -1.00006137e+01
 -9.99958418e+00 -9.99911404e+00 -9.99661493e+00 -9.99474530e+00
 -9.99076758e+00 -9.98908126e+00 -9.97492507e+00 -9.97387557e+00
 -9.96988939e+00 -9.96537485e+00 -9.96248194e+00 -9.96210971e+00
 -9.95422255e+00 -9.92255207e+00 -8.29791725e-01 -8.19413349e-01
 -7.90821198e-01 -7.60233657e-01 -7.43756274e-01 -7.26405003e-01
 -7.13166882e-01 -7.09934724e-01 -6.91861643e-01 -6.66226372e-01
 -6.25450187e-01 -6.16115553e-01 -5.97067729e-01 -5.65190206e-01
 -5.51453709e-01 -5.32522013e-01 -5.31392624e-01 -5.13080387e-01
 -4.79770961e-01 -4.70010729e-01 -4.60399621e-01 -4.42695169e-01
 -4.36781227e-01 -4.23315244e-01 -4.13112149e-01 -3.96994608e-01
 -3.92657413e-01 -3.75199651e-01 -3.67931758e-01 -3.62485410e-01
 -3.51988655e-01 -3.47920213e-01 -3.40985864e-01 -3.33982318e-01
 -3.25987585e-01 -3.24558648e-01 -3.09305234e-01 -2.96688105e-01
 -2.93689346e-01 -2.55627215e-01 -2.54077346e-01 -2.49133330e-01
 -2.40030739e-01 -2.35137099e-01 -2.21010692e-01 -2.12033314e-01
 -1.99266655e-01 -1.94696005e-01 -1.70822894e-01 -1.45903481e-01
 -8.42433780e-02 -3.04472810e-03  6.15633723e-02  6.58737381e-02
  1.05438041e-01  1.26468579e-01  1.53166954e-01  1.71706991e-01
  1.97844349e-01  2.42977017e-01  2.54187868e-01  2.61272008e-01
  2.66419900e-01  2.76480488e-01  3.04825309e-01  3.10704513e-01
  3.35016893e-01  3.48793793e-01  3.56700648e-01  3.70664014e-01
  3.73698409e-01  3.85486887e-01  4.00045127e-01  4.02313598e-01
  4.11311696e-01  4.34404829e-01  4.62150018e-01  4.85799364e-01
  4.92309803e-01  5.22755035e-01  5.30895036e-01  5.49275718e-01
  5.68447213e-01  5.89764285e-01  6.17040858e-01  6.20396537e-01
  6.34484285e-01  6.66325152e-01  6.71653886e-01  6.86934180e-01
  7.03428206e-01  7.17922388e-01  7.40254021e-01  7.59295700e-01
  7.88610427e-01  7.94539639e-01  8.13117133e-01  8.59453814e-01
  9.10271186e-01  9.30923200e-01  9.57048645e-01  1.07919943e+00]
nelec by numeric integration = 146.00000009418628
    CPU time for vxc     38.22 sec, wall time     15.85 sec
E1 = -4086.3764769153213  Ecoul = 1886.905081194436  Exc = -124.5516132823597
cycle= 2 E= -835.762043166274  delta_E= -0.00236  |g|= 0.277  |ddm|= 0.858
    CPU time for cycle= 2     38.62 sec, wall time     15.91 sec
  HOMO = -0.106637289577892  LUMO = -0.0236205980592404
  mo_energy =
[-10.03590763 -10.0349375  -10.02776712 -10.02529831 -10.02504661
 -10.02268974 -10.02087126 -10.01882128 -10.01589727 -10.01572559
 -10.01483682 -10.01441953 -10.01142883 -10.01067038 -10.01034777
 -10.01005311 -10.00937691 -10.00298908 -10.00009501  -9.99096628
  -9.98603645  -9.97230912  -0.85846812  -0.83522739  -0.81320746
  -0.77129642  -0.76492243  -0.74307477  -0.72760841  -0.72062978
  -0.70046813  -0.68603734  -0.64503581  -0.62789598  -0.60305639
  -0.58222203  -0.56921282  -0.54728414  -0.54400666  -0.52700418
  -0.48851333  -0.48200068  -0.47135353  -0.45574024  -0.44372752
  -0.43207567  -0.42491636  -0.4147301   -0.4076128   -0.39620871
  -0.386685    -0.37409284  -0.36957408  -0.35617297  -0.35565184
  -0.34818832  -0.33898218  -0.33206185  -0.32157962  -0.31502183
  -0.31029594  -0.27869695  -0.26782551  -0.2627887   -0.24896549
  -0.24536     -0.23745311  -0.22329399  -0.21394619  -0.20263204
  -0.17849234  -0.16665776  -0.10663729  -0.0236206    0.04496843
   0.05479427   0.09961176   0.11257831   0.13487548   0.16436111
   0.17183804   0.23135697   0.23738736   0.24721648   0.26284044
   0.28071946   0.28766179   0.29765608   0.31780092   0.33729456
   0.34531087   0.35880237   0.38113346   0.38868511   0.39152151
   0.39536115   0.40318006   0.4353558    0.44205971   0.46165257
   0.48609333   0.50152624   0.51570032   0.52540626   0.54777058
   0.58192378   0.60116189   0.6114608    0.62093125   0.63760824
   0.65015234   0.67357246   0.6821209    0.69967037   0.72456714
   0.74120091   0.7608975    0.77256426   0.79692068   0.84106914
   0.87830093   0.89346088   0.95490295   1.05217165]
nelec by numeric integration = 146.0000000758544
    CPU time for vxc     38.49 sec, wall time     15.92 sec
E1 = -4088.3511863530703  Ecoul = 1888.8932461421523  Exc = -124.58522194331398
cycle= 3 E= -835.782196317261  delta_E= -0.0202  |g|= 0.143  |ddm|= 0.616
    CPU time for cycle= 3     38.96 sec, wall time     15.99 sec
  HOMO = -0.109611789293244  LUMO = -0.0272950280604691
  mo_energy =
[-10.04147401 -10.03617435 -10.03120907 -10.02968006 -10.02899491
 -10.02849533 -10.02796319 -10.02592965 -10.02532564 -10.02510571
 -10.02449395 -10.01833493 -10.01759457 -10.01526292 -10.01159747
 -10.01001874 -10.00888316 -10.00695966 -10.00453644 -10.00445827
 -10.00085127  -9.99571879  -0.8623308   -0.8401427   -0.81550456
  -0.77602421  -0.77017121  -0.74611163  -0.73165076  -0.72368547
  -0.7051509   -0.68738191  -0.64464144  -0.6334883   -0.60740527
  -0.58323712  -0.5710018   -0.55084454  -0.54869475  -0.52858552
  -0.49433449  -0.48318723  -0.47243695  -0.45766132  -0.4496791
  -0.43561941  -0.42518156  -0.41604991  -0.4132471   -0.3974263
  -0.39006494  -0.377456    -0.37283273  -0.36362817  -0.36106947
  -0.35305679  -0.34414072  -0.33419105  -0.32354695  -0.31747573
  -0.31085674  -0.28115251  -0.27097712  -0.26922283  -0.25458349
  -0.25182862  -0.24003006  -0.22547058  -0.21792437  -0.2104209
  -0.18324911  -0.16856753  -0.10961179  -0.02729503   0.04340273
   0.04996884   0.09130211   0.10804226   0.13242549   0.15664752
   0.17056746   0.22624748   0.23301978   0.24836552   0.257608
   0.27729156   0.28341572   0.29717723   0.31268022   0.3281592
   0.34670715   0.35509085   0.36844246   0.38007842   0.3881428
   0.39442199   0.39862625   0.43192476   0.44099178   0.46284336
   0.48089451   0.50111037   0.51403605   0.52422692   0.54585166
   0.57542677   0.59643314   0.60897768   0.61818937   0.63951063
   0.64885393   0.67104706   0.67866343   0.69613966   0.71541016
   0.73772495   0.7581627    0.7672958    0.79503551   0.83711429
   0.87352479   0.89318179   0.95254045   1.04548866]
nelec by numeric integration = 146.00000004660703
    CPU time for vxc     38.09 sec, wall time     15.83 sec
E1 = -4088.6565560487857  Ecoul = 1889.2042470058045  Exc = -124.5961167973297
cycle= 4 E= -835.787460003339  delta_E= -0.00526  |g|= 0.0792  |ddm|= 0.37
    CPU time for cycle= 4     38.56 sec, wall time     15.91 sec
  HOMO = -0.109420317017917  LUMO = -0.0272044472372482
  mo_energy =
[-10.03836371 -10.02978277 -10.02906597 -10.02860045 -10.02747279
 -10.02715821 -10.0235998  -10.02249265 -10.02191002 -10.02016793
 -10.01920174 -10.0178661  -10.01610551 -10.01518641 -10.01390094
 -10.01322113 -10.01235094 -10.01165695 -10.01082971 -10.00604436
 -10.00485309 -10.00377367  -0.85848928  -0.83988492  -0.81437816
  -0.77498643  -0.76919727  -0.74526799  -0.73162469  -0.72460823
  -0.70552592  -0.6878305   -0.64555004  -0.63313435  -0.60764995
  -0.5824567   -0.56999332  -0.54902991  -0.54842122  -0.52951341
  -0.49270229  -0.48334663  -0.47300737  -0.45831873  -0.44864916
  -0.43550844  -0.42670788  -0.41474161  -0.41166816  -0.39568104
  -0.38934888  -0.37686521  -0.37084655  -0.36124381  -0.36001917
  -0.35268899  -0.34231198  -0.3351645   -0.3246189   -0.31717941
  -0.31374536  -0.27985918  -0.27029905  -0.26804617  -0.25430733
  -0.25184433  -0.24025382  -0.22682268  -0.21837555  -0.20978191
  -0.18466371  -0.16902457  -0.10942032  -0.02720445   0.04330351
   0.04888031   0.09232223   0.1078965    0.1317521    0.15720035
   0.17057733   0.2275925    0.23388337   0.24530541   0.2579575
   0.27778422   0.28389826   0.29417596   0.31523811   0.33133435
   0.34720994   0.35419139   0.37040766   0.382804     0.39060444
   0.39189204   0.39910666   0.43152106   0.44177972   0.46210639
   0.48117013   0.50299859   0.5116279    0.5248135    0.54712487
   0.5769092    0.59810463   0.60869101   0.61637256   0.63948291
   0.6489396    0.66933062   0.67990014   0.69611717   0.7189829
   0.73783603   0.76078282   0.76786532   0.7935215    0.83706526
   0.87653058   0.89446884   0.9505745    1.04793409]
nelec by numeric integration = 146.0000000481204
    CPU time for vxc     38.46 sec, wall time     15.89 sec
E1 = -4088.453147401193  Ecoul = 1888.9974073965957  Exc = -124.59498268858793
cycle= 5 E= -835.789756856214  delta_E= -0.0023  |g|= 0.0285  |ddm|= 0.191
    CPU time for cycle= 5     39.24 sec, wall time     16.00 sec
  HOMO = -0.108842697303563  LUMO = -0.026382481563722
  mo_energy =
[-10.03756189 -10.03025868 -10.03020691 -10.0299195  -10.02820872
 -10.02795205 -10.02323632 -10.02170074 -10.0209427  -10.01940704
 -10.01827234 -10.01736026 -10.01624994 -10.01500858 -10.01307524
 -10.01232402 -10.00982496 -10.00872569 -10.00654256 -10.0064875
 -10.00626848  -9.99761766  -0.85922949  -0.83895657  -0.81407441
  -0.77451406  -0.76888112  -0.74510904  -0.73074989  -0.72378404
  -0.70480078  -0.68728399  -0.64452697  -0.63260608  -0.60721071
  -0.58223022  -0.56985477  -0.54881532  -0.54804172  -0.52886818
  -0.49243496  -0.48291017  -0.47250768  -0.4579135   -0.44809444
  -0.43517253  -0.42563914  -0.41477088  -0.411567    -0.396047
  -0.38904416  -0.37648283  -0.37112391  -0.36101113  -0.35986288
  -0.35206911  -0.3422142   -0.33463509  -0.32440637  -0.3168103
  -0.31262509  -0.28004893  -0.27017321  -0.26790572  -0.25374844
  -0.25108906  -0.23981922  -0.22629163  -0.21761007  -0.20904323
  -0.18411131  -0.16856196  -0.1088427   -0.02638248   0.04381794
   0.04930372   0.09308515   0.10865943   0.13236263   0.15755491
   0.1711616    0.22761166   0.23422159   0.24658459   0.2588475
   0.27829763   0.28439138   0.29547717   0.31496242   0.33109718
   0.34693523   0.3549747    0.37153315   0.38295564   0.39050068
   0.39269734   0.39959482   0.43170999   0.44193441   0.46264511
   0.48126461   0.50259858   0.51255205   0.52497194   0.54685483
   0.57691572   0.59821289   0.60938719   0.61712749   0.63994113
   0.64971968   0.67036692   0.68064826   0.69680234   0.71863346
   0.73809578   0.76087933   0.76825315   0.79457923   0.83805338
   0.87616383   0.89441529   0.95119059   1.04906961]
nelec by numeric integration = 146.0000000538428
    CPU time for vxc     38.25 sec, wall time     15.83 sec
E1 = -4088.4948177521205  Ecoul = 1889.0369657780234  Exc = -124.59315617771098
cycle= 6 E= -835.790042314837  delta_E= -0.000285  |g|= 0.00933  |ddm|= 0.0557
    CPU time for cycle= 6     38.74 sec, wall time     15.90 sec
  HOMO = -0.108647763882579  LUMO = -0.0261445649798041
  mo_energy =
[-10.03788715 -10.02982432 -10.02920969 -10.02886938 -10.02780839
 -10.02690385 -10.02285103 -10.02160085 -10.0206577  -10.01872633
 -10.01667829 -10.01666706 -10.01660135 -10.01451124 -10.01303404
 -10.01161888 -10.00910557 -10.00892852 -10.00767919 -10.00513359
 -10.00399488  -9.99886857  -0.85868939  -0.8388293   -0.8136392
  -0.77420344  -0.76861477  -0.74460794  -0.73044676  -0.72356802
  -0.70451185  -0.68690719  -0.64428543  -0.63236408  -0.60689476
  -0.58187241  -0.56959932  -0.54851063  -0.54785979  -0.5287006
  -0.49220145  -0.4826515   -0.47224748  -0.45759229  -0.44790435
  -0.43495143  -0.42558805  -0.41439873  -0.41136166  -0.39566586
  -0.38881624  -0.37626654  -0.37074252  -0.36074673  -0.35965738
  -0.35191915  -0.34197458  -0.33428536  -0.32399628  -0.31644331
  -0.31247499  -0.27951782  -0.26976874  -0.26759011  -0.25353604
  -0.25090524  -0.23937295  -0.2261786   -0.21732299  -0.2088192
  -0.18373948  -0.16818711  -0.10864776  -0.02614456   0.04420269
   0.0497613    0.09340583   0.10903372   0.13279457   0.15796882
   0.17132505   0.22795131   0.23447479   0.246677     0.2590763
   0.27843494   0.28463689   0.29562046   0.31536128   0.33142462
   0.34754358   0.35520094   0.37166198   0.38308124   0.39073621
   0.39292126   0.39985287   0.43198515   0.44210115   0.46288955
   0.48158242   0.50311274   0.51282707   0.52528437   0.54749267
   0.57733251   0.59864367   0.60973638   0.61752574   0.64015223
   0.64991572   0.6706427    0.68078182   0.69708964   0.7191099
   0.73871065   0.76118306   0.76859343   0.79478559   0.83832678
   0.87662062   0.89476944   0.95153531   1.04888792]
nelec by numeric integration = 146.0000000532322
    CPU time for vxc     38.25 sec, wall time     15.81 sec
E1 = -4088.4564437833474  Ecoul = 1888.9979150368908  Exc = -124.59250841447127
cycle= 7 E= -835.790071323957  delta_E= -2.9e-05  |g|= 0.00208  |ddm|= 0.015
    CPU time for cycle= 7     38.72 sec, wall time     15.89 sec
  HOMO = -0.108622789317699  LUMO = -0.0260665595671066
  mo_energy =
[-10.0377893  -10.02971988 -10.02913363 -10.02877445 -10.02747588
 -10.02706052 -10.02268423 -10.02186139 -10.02069643 -10.01853426
 -10.01693727 -10.01641828 -10.01618495 -10.01419418 -10.01287076
 -10.01168854 -10.00906789 -10.0090528  -10.00728725 -10.00555181
 -10.00440424  -9.99893262  -0.85866305  -0.83876755  -0.8136439
  -0.77414063  -0.76854076  -0.74464192  -0.73044352  -0.72347693
  -0.7044624   -0.68690528  -0.64425737  -0.63232807  -0.60684606
  -0.58187228  -0.56960167  -0.54849382  -0.5478306   -0.52862813
  -0.49218456  -0.48262142  -0.47222403  -0.45753273  -0.44791036
  -0.4348979   -0.42553752  -0.4144186   -0.41132449  -0.39564781
  -0.38881088  -0.37624521  -0.37071605  -0.36076603  -0.35964906
  -0.3518635   -0.34198056  -0.33424712  -0.32395279  -0.3164355
  -0.31237374  -0.27956309  -0.2697051   -0.26753983  -0.25350938
  -0.25094028  -0.23941233  -0.22606716  -0.21731961  -0.20880522
  -0.18365143  -0.16819439  -0.10862279  -0.02606656   0.04421347
   0.04986706   0.0933823    0.10902089   0.13279712   0.15802726
   0.17141959   0.2280117    0.23448609   0.24682708   0.25899693
   0.2783474    0.28466497   0.29576871   0.31538224   0.33146633
   0.34745907   0.35527812   0.37161649   0.38303079   0.39074915
   0.39297799   0.39974174   0.43202318   0.44216929   0.46295243
   0.48167794   0.50310428   0.51292088   0.52534619   0.54743552
   0.57735736   0.59864021   0.6097447    0.61756703   0.64016808
   0.64995771   0.67072245   0.68077881   0.69712563   0.71915189
   0.73868101   0.76122154   0.76867067   0.79487846   0.83832989
   0.87667582   0.894824     0.95161262   1.04888464]
nelec by numeric integration = 146.00000005320845
    CPU time for vxc     37.99 sec, wall time     15.83 sec
E1 = -4088.455161048814  Ecoul = 1888.9966531273203  Exc = -124.59253074863096
cycle= 8 E= -835.790072833153  delta_E= -1.51e-06  |g|= 0.000517  |ddm|= 0.00378
    CPU time for cycle= 8     38.34 sec, wall time     15.89 sec
  HOMO = -0.108646835537939  LUMO = -0.0260698601234978
  mo_energy =
[-10.03772329 -10.02975883 -10.02919358 -10.02884466 -10.02748144
 -10.02709335 -10.02261855 -10.02176698 -10.0206452  -10.01848816
 -10.01691684 -10.01648076 -10.01633051 -10.01427356 -10.01303198
 -10.01171502 -10.00910157 -10.00902298 -10.0073528  -10.00559188
 -10.00433521  -9.99892996  -0.85868547  -0.83874684  -0.81367074
  -0.77415967  -0.76854088  -0.74464959  -0.73045026  -0.72350205
  -0.70448797  -0.68691653  -0.64427156  -0.63235031  -0.60684209
  -0.58189122  -0.56962028  -0.54850522  -0.5478471   -0.52862719
  -0.49218812  -0.48263379  -0.47223193  -0.45754803  -0.44791923
  -0.43489604  -0.42554614  -0.41441506  -0.41134218  -0.39566817
  -0.38881019  -0.37624395  -0.37072779  -0.36079052  -0.35964951
  -0.35185027  -0.34199494  -0.33427292  -0.32397279  -0.31645125
  -0.31238021  -0.27956747  -0.26970943  -0.26755518  -0.2535158
  -0.2509495   -0.23943326  -0.22605669  -0.21732781  -0.20883246
  -0.18366776  -0.16820955  -0.10864684  -0.02606986   0.0441976
   0.04986722   0.09336616   0.10899988   0.13278072   0.15801922
   0.17140144   0.22801167   0.23449115   0.24681755   0.25898148
   0.27834375   0.28466755   0.29575424   0.31537367   0.33146741
   0.34746355   0.35527113   0.37159788   0.38302917   0.39073446
   0.39297294   0.39973804   0.43203341   0.44216157   0.46293156
   0.48169073   0.50308516   0.51291336   0.5253133    0.54742339
   0.57736386   0.59860769   0.60973205   0.61755122   0.64014817
   0.64992246   0.67070427   0.68074941   0.6971284    0.71912262
   0.73866465   0.76120276   0.76865422   0.7948572    0.8382868
   0.87666367   0.89480886   0.95161504   1.04894193]
nelec by numeric integration = 146.0000000530896
    CPU time for vxc     37.73 sec, wall time     15.64 sec
E1 = -4088.4570247267206  Ecoul = 1888.9985627261156  Exc = -124.59257676568194
cycle= 9 E= -835.790072929316  delta_E= -9.62e-08  |g|= 0.000288  |ddm|= 0.00126
    CPU time for cycle= 9     38.24 sec, wall time     15.72 sec
  HOMO = -0.108650693573821  LUMO = -0.0260664988837836
  mo_energy =
[-10.03776127 -10.02974729 -10.02917576 -10.02882106 -10.02752054
 -10.02705478 -10.02268931 -10.02176654 -10.02067639 -10.01852486
 -10.01693116 -10.01649096 -10.0163092  -10.01426422 -10.01299478
 -10.01168603 -10.00907818 -10.00904167 -10.00734361 -10.00554282
 -10.00437454  -9.99893434  -0.85868432  -0.83875834  -0.81366627
  -0.77416306  -0.76855027  -0.74464865  -0.73045094  -0.7234998
  -0.70448198  -0.68691727  -0.64427061  -0.63234796  -0.60685118
  -0.58189108  -0.56961798  -0.54850699  -0.54784401  -0.52863214
  -0.4921934   -0.48263449  -0.47223334  -0.45755046  -0.44792194
  -0.43490405  -0.42555002  -0.41441822  -0.41133977  -0.39566701
  -0.38881535  -0.37624355  -0.37072689  -0.36078066  -0.35964557
  -0.35185885  -0.3419895   -0.3342697   -0.32397246  -0.3164494
  -0.31238241  -0.27956956  -0.26971709  -0.26755713  -0.25351435
  -0.2509461   -0.23942933  -0.22606293  -0.21732744  -0.20882694
  -0.1836732   -0.16821192  -0.10865069  -0.0260665    0.04419749
   0.04985817   0.09337273   0.10900532   0.13278318   0.15801365
   0.17140012   0.22800755   0.23449006   0.24681404   0.25899026
   0.27835065   0.284663     0.29574959   0.31537228   0.33146631
   0.3474613    0.35526607   0.37160369   0.38303412   0.39073524
   0.39297113   0.39974513   0.43202841   0.44216203   0.46292877
   0.48167203   0.50308171   0.51291053   0.52531834   0.54742502
   0.57735424   0.59861798   0.6097327    0.61755219   0.64014737
   0.64992716   0.67070555   0.68075595   0.6971192    0.7191333
   0.73866727   0.76120387   0.76865      0.79485583   0.83829565
   0.87665955   0.89480327   0.95159884   1.04892523]
nelec by numeric integration = 146.00000005314038
    CPU time for vxc     38.16 sec, wall time     15.89 sec
E1 = -4088.4567849923205  Ecoul = 1888.9983287923947  Exc = -124.5925825959643
cycle= 10 E= -835.790072958919  delta_E= -2.96e-08  |g|= 7.11e-05  |ddm|= 0.000509
    CPU time for cycle= 10     38.52 sec, wall time     15.95 sec
  HOMO = -0.10865389583599  LUMO = -0.026069915505885
  mo_energy =
[-10.03776607 -10.02974833 -10.02917812 -10.02882677 -10.02751766
 -10.02706848 -10.02268816 -10.02178167 -10.02067858 -10.01853523
 -10.01691206 -10.01648795 -10.01630875 -10.01425974 -10.01297911
 -10.01170391 -10.00908687 -10.00903447 -10.00736149 -10.00555084
 -10.00436327  -9.99891844  -0.85868626  -0.83876335  -0.81366657
  -0.77416322  -0.76855246  -0.74464886  -0.73045144  -0.72350175
  -0.70448245  -0.68691677  -0.64427135  -0.63234997  -0.60685421
  -0.58189076  -0.56961712  -0.54850757  -0.54784611  -0.52863483
  -0.49219347  -0.48263508  -0.47223397  -0.4575516   -0.4479201
  -0.43490611  -0.42555011  -0.41441901  -0.41134051  -0.3956669
  -0.38881551  -0.3762464   -0.37072888  -0.3607809   -0.35964875
  -0.35186306  -0.34199016  -0.33426944  -0.32397274  -0.31645031
  -0.3123868   -0.27956957  -0.2697195   -0.26755826  -0.2535159
  -0.25094506  -0.23942785  -0.22606861  -0.21732877  -0.20882748
  -0.18367536  -0.16821112  -0.1086539   -0.02606992   0.04419892
   0.04985585   0.09337327   0.10900664   0.13278318   0.15801232
   0.17139784   0.22800403   0.2344867    0.24680891   0.25899337
   0.27835199   0.28465987   0.2957469    0.31537021   0.33146123
   0.34746125   0.3552632    0.371606     0.38303445   0.39073546
   0.39296753   0.39974689   0.43202425   0.44215918   0.46292909
   0.48166932   0.50308316   0.51290728   0.52531822   0.54742528
   0.57735232   0.5986172    0.60973271   0.61755133   0.64014812
   0.64992865   0.67070355   0.6807583    0.69711677   0.71912941
   0.73866762   0.76120388   0.76864908   0.79485368   0.83829888
   0.87665755   0.89480294   0.95159598   1.04891759]
nelec by numeric integration = 146.00000005313575
    CPU time for vxc     38.75 sec, wall time     15.94 sec
E1 = -4088.456897795288  Ecoul = 1888.9984432097183  Exc = -124.592584212214
cycle= 11 E= -835.790072960812  delta_E= -1.89e-09  |g|= 4.12e-05  |ddm|= 0.000175
    CPU time for cycle= 11     39.22 sec, wall time     16.02 sec
  HOMO = -0.108652179504313  LUMO = -0.0260670392676187
  mo_energy =
[-10.03776132 -10.02974917 -10.02917948 -10.02882498 -10.02751615
 -10.02706423 -10.02268072 -10.02177887 -10.02067744 -10.01852692
 -10.01691628 -10.01648856 -10.0163069  -10.01426323 -10.01298404
 -10.01169671 -10.00908461 -10.0090381  -10.00734852 -10.00554644
 -10.00436427  -9.99892648  -0.85868556  -0.83876097  -0.81366624
  -0.77416219  -0.76855068  -0.74464816  -0.73045051  -0.7234998
  -0.70448174  -0.6869164   -0.64427004  -0.63234866  -0.60685219
  -0.58189036  -0.56961715  -0.548507    -0.54784495  -0.52863358
  -0.49219273  -0.48263432  -0.47223312  -0.45755038  -0.44792036
  -0.43490465  -0.42554844  -0.41441851  -0.41133988  -0.39566677
  -0.38881501  -0.37624539  -0.37072808  -0.36078085  -0.35964806
  -0.35186109  -0.34199015  -0.33426878  -0.32397193  -0.31644965
  -0.31238492  -0.27956921  -0.26971773  -0.26755722  -0.25351536
  -0.25094545  -0.23942779  -0.22606698  -0.21732816  -0.20882698
  -0.18367422  -0.16821078  -0.10865218  -0.02606704   0.04419959
   0.04985803   0.0933734    0.10900656   0.1327836    0.1580136
   0.17139938   0.22800503   0.2344873    0.24681084   0.25899197
   0.2783513    0.28466136   0.29574891   0.31537094   0.33146249
   0.34746164   0.35526469   0.37160505   0.38303401   0.39073545
   0.39296975   0.39974595   0.43202476   0.44216066   0.46293031
   0.48167164   0.5030828    0.51290926   0.52531883   0.5474257
   0.57735398   0.59861783   0.60973338   0.6175527    0.64014821
   0.64992897   0.67070516   0.68075774   0.69711855   0.71913093
   0.7386681    0.76120426   0.76865028   0.79485617   0.83829846
   0.87665888   0.89480351   0.95159982   1.04892061]
nelec by numeric integration = 146.00000005314138
    CPU time for vxc     38.24 sec, wall time     15.77 sec
E1 = -4088.4568332429035  Ecoul = 1888.9983776027661  Exc = -124.59258315828228
cycle= 12 E= -835.790072961448  delta_E= -6.36e-10  |g|= 1.23e-05  |ddm|= 8.17e-05
    CPU time for cycle= 12     38.63 sec, wall time     15.83 sec
  HOMO = -0.108652360353486  LUMO = -0.0260669730302309
  mo_energy =
[-10.03776103 -10.02974887 -10.0291776  -10.02882383 -10.0275152
 -10.02706344 -10.0226819  -10.02177673 -10.02067573 -10.01852709
 -10.01691768 -10.01648635 -10.01630823 -10.01426176 -10.01298638
 -10.01169665 -10.00908277 -10.00903784 -10.00735012 -10.00554914
 -10.00436572  -9.99892459  -0.85868538  -0.83876005  -0.8136662
  -0.77416218  -0.76855046  -0.74464825  -0.73045036  -0.72349977
  -0.7044815   -0.68691636  -0.64427012  -0.63234865  -0.60685173
  -0.58189054  -0.56961734  -0.54850698  -0.547845    -0.52863312
  -0.49219265  -0.48263421  -0.47223306  -0.45755025  -0.44792028
  -0.4349044   -0.42554871  -0.41441841  -0.41133989  -0.39566689
  -0.38881496  -0.37624499  -0.37072781  -0.36078093  -0.35964772
  -0.35186043  -0.3419901   -0.33426874  -0.32397176  -0.31644948
  -0.31238449  -0.27956928  -0.26971744  -0.26755714  -0.25351507
  -0.2509454   -0.2394281   -0.22606622  -0.21732785  -0.20882693
  -0.18367378  -0.16821093  -0.10865236  -0.02606697   0.04419932
   0.04985878   0.09337353   0.10900654   0.13278371   0.15801397
   0.1713995    0.22800563   0.23448778   0.24681137   0.25899165
   0.27835112   0.28466177   0.29574934   0.31537115   0.33146308
   0.34746151   0.35526498   0.37160495   0.38303395   0.3907353
   0.39296995   0.39974584   0.43202585   0.44216073   0.4629301
   0.4816721    0.50308266   0.51290976   0.52531876   0.54742551
   0.57735422   0.59861768   0.6097335    0.61755293   0.64014804
   0.64992857   0.67070552   0.68075747   0.69711891   0.71913111
   0.73866812   0.76120436   0.76865052   0.7948561    0.83829797
   0.87665921   0.89480363   0.95159976   1.04892175]
nelec by numeric integration = 146.00000005314075
    CPU time for vxc     38.02 sec, wall time     15.81 sec
E1 = -4088.4568220010588  Ecoul = 1888.9983668584653  Exc = -124.59258365588411
cycle= 13 E= -835.790072961506  delta_E= -5.82e-11  |g|= 4.53e-06  |ddm|= 2.77e-05
    CPU time for cycle= 13     38.44 sec, wall time     15.87 sec
  HOMO = -0.108652497664099  LUMO = -0.0260671238761248
  mo_energy =
[-10.03776152 -10.02974903 -10.02917853 -10.02882513 -10.0275158
 -10.02706459 -10.02268257 -10.02177829 -10.0206773  -10.01852685
 -10.01691748 -10.01648781 -10.01630821 -10.01426083 -10.01298561
 -10.0116984  -10.00908308 -10.00903716 -10.00734894 -10.00554792
 -10.00436426  -9.99892659  -0.85868579  -0.8387605   -0.81366654
  -0.77416246  -0.76855066  -0.74464835  -0.73045056  -0.7234999
  -0.70448174  -0.68691644  -0.64427013  -0.63234899  -0.60685211
  -0.58189065  -0.56961746  -0.54850722  -0.54784521  -0.52863322
  -0.49219299  -0.48263435  -0.47223315  -0.45755035  -0.44792063
  -0.43490457  -0.42554873  -0.41441856  -0.41134012  -0.39566696
  -0.38881515  -0.37624516  -0.37072808  -0.36078126  -0.35964788
  -0.3518608   -0.34199036  -0.33426888  -0.32397195  -0.31644974
  -0.31238445  -0.27956941  -0.2697177   -0.26755739  -0.25351535
  -0.25094562  -0.23942811  -0.22606626  -0.21732803  -0.20882733
  -0.18367407  -0.16821099  -0.1086525   -0.02606712   0.04419931
   0.04985843   0.09337305   0.10900643   0.13278365   0.15801363
   0.17139937   0.22800528   0.23448753   0.24681143   0.25899157
   0.27835098   0.28466143   0.29574938   0.31537081   0.33146259
   0.34746152   0.35526485   0.37160444   0.38303358   0.3907352
   0.39296991   0.3997456    0.43202527   0.44216068   0.46293004
   0.48167172   0.50308247   0.51290969   0.52531862   0.54742539
   0.57735392   0.59861742   0.60973332   0.61755276   0.64014803
   0.64992859   0.67070544   0.68075735   0.69711849   0.71913069
   0.73866799   0.76120413   0.76865025   0.79485601   0.83829786
   0.87665878   0.89480341   0.95159969   1.04892103]
nelec by numeric integration = 146.00000005313967
    CPU time for vxc     37.81 sec, wall time     15.73 sec
E1 = -4088.4568506209116  Ecoul = 1888.9983961439254  Exc = -124.59258432146368
Extra cycle  E= -835.790072961478  delta_E= 2.82e-11  |g|= 9.46e-06  |ddm|= 2.14e-05
    CPU time for scf_cycle    587.68 sec, wall time    240.50 sec
    CPU time for SCF    587.68 sec, wall time    240.50 sec
converged SCF energy = -835.790072961478
nelec by numeric integration = 146.00000005313967
    CPU time for vxc     38.62 sec, wall time     15.95 sec
 ** Mulliken pop  **
pop of  0 C 1s            1.99150
pop of  0 C 2s            1.20115
pop of  0 C 2px           0.97302
pop of  0 C 2py           0.92592
pop of  0 C 2pz           0.89416
pop of  1 C 1s            1.99101
pop of  1 C 2s            1.07749
pop of  1 C 2px           0.99396
pop of  1 C 2py           0.99887
pop of  1 C 2pz           0.95574
pop of  2 C 1s            1.99093
pop of  2 C 2s            1.17041
pop of  2 C 2px           0.99299
pop of  2 C 2py           0.94497
pop of  2 C 2pz           0.97750
pop of  3 C 1s            1.99148
pop of  3 C 2s            1.18488
pop of  3 C 2px           0.98413
pop of  3 C 2py           0.93626
pop of  3 C 2pz           1.01339
pop of  4 C 1s            1.99129
pop of  4 C 2s            1.07784
pop of  4 C 2px           1.01396
pop of  4 C 2py           0.98954
pop of  4 C 2pz           0.98755
pop of  5 C 1s            1.99054
pop of  5 C 2s            1.11726
pop of  5 C 2px           1.04221
pop of  5 C 2py           0.94952
pop of  5 C 2pz           1.00159
pop of  6 C 1s            1.99075
pop of  6 C 2s            1.15086
pop of  6 C 2px           0.97321
pop of  6 C 2py           0.97752
pop of  6 C 2pz           0.96431
pop of  7 C 1s            1.99148
pop of  7 C 2s            1.11866
pop of  7 C 2px           1.02201
pop of  7 C 2py           1.02129
pop of  7 C 2pz           1.00749
pop of  8 C 1s            1.99103
pop of  8 C 2s            1.14694
pop of  8 C 2px           0.98261
pop of  8 C 2py           0.94661
pop of  8 C 2pz           0.92599
pop of  9 C 1s            1.99141
pop of  9 C 2s            1.16176
pop of  9 C 2px           0.97293
pop of  9 C 2py           0.93966
pop of  9 C 2pz           0.91750
pop of  10 C 1s           1.99038
pop of  10 C 2s           1.07995
pop of  10 C 2px          1.04823
pop of  10 C 2py          0.98163
pop of  10 C 2pz          1.03058
pop of  11 C 1s           1.99130
pop of  11 C 2s           1.18380
pop of  11 C 2px          0.95892
pop of  11 C 2py          0.92895
pop of  11 C 2pz          0.96811
pop of  12 C 1s           1.99055
pop of  12 C 2s           1.10203
pop of  12 C 2px          0.98095
pop of  12 C 2py          0.96305
pop of  12 C 2pz          0.95369
pop of  13 C 1s           1.99018
pop of  13 C 2s           1.06719
pop of  13 C 2px          1.01470
pop of  13 C 2py          0.97895
pop of  13 C 2pz          0.98328
pop of  14 C 1s           1.99102
pop of  14 C 2s           1.17567
pop of  14 C 2px          0.99070
pop of  14 C 2py          0.92932
pop of  14 C 2pz          0.97352
pop of  15 C 1s           1.99070
pop of  15 C 2s           1.12941
pop of  15 C 2px          0.99579
pop of  15 C 2py          0.95383
pop of  15 C 2pz          0.99103
pop of  16 C 1s           1.99040
pop of  16 C 2s           1.10565
pop of  16 C 2px          1.00415
pop of  16 C 2py          0.95757
pop of  16 C 2pz          0.95909
pop of  17 C 1s           1.99054
pop of  17 C 2s           1.12160
pop of  17 C 2px          0.99616
pop of  17 C 2py          0.94654
pop of  17 C 2pz          0.94281
pop of  18 C 1s           1.99119
pop of  18 C 2s           1.18573
pop of  18 C 2px          0.98886
pop of  18 C 2py          0.93888
pop of  18 C 2pz          0.94565
pop of  19 C 1s           1.99069
pop of  19 C 2s           1.12638
pop of  19 C 2px          1.03736
pop of  19 C 2py          0.94656
pop of  19 C 2pz          1.02666
pop of  20 C 1s           1.99141
pop of  20 C 2s           1.21605
pop of  20 C 2px          0.97889
pop of  20 C 2py          0.95833
pop of  20 C 2pz          0.92282
pop of  21 C 1s           1.99131
pop of  21 C 2s           1.18044
pop of  21 C 2px          0.96084
pop of  21 C 2py          0.98380
pop of  21 C 2pz          0.94334
pop of  22 H 1s           0.92191
pop of  23 H 1s           0.89418
pop of  24 H 1s           0.95677
pop of  25 H 1s           0.90198
pop of  26 H 1s           0.90485
pop of  27 H 1s           0.87758
pop of  28 H 1s           0.89832
pop of  29 H 1s           0.94521
pop of  30 H 1s           0.91912
pop of  31 H 1s           0.91990
pop of  32 H 1s           0.95397
pop of  33 H 1s           0.89418
pop of  34 H 1s           0.93214
pop of  35 H 1s           0.90772
 ** Mulliken atomic charges  **
charge of    0C =      0.01424
charge of    1C =     -0.01708
charge of    2C =     -0.07680
charge of    3C =     -0.11015
charge of    4C =     -0.06017
charge of    5C =     -0.10112
charge of    6C =     -0.05665
charge of    7C =     -0.16092
charge of    8C =      0.00681
charge of    9C =      0.01674
charge of   10C =     -0.13077
charge of   11C =     -0.03108
charge of   12C =      0.00974
charge of   13C =     -0.03430
charge of   14C =     -0.06023
charge of   15C =     -0.06075
charge of   16C =     -0.01685
charge of   17C =      0.00235
charge of   18C =     -0.05031
charge of   19C =     -0.12766
charge of   20C =     -0.06750
charge of   21C =     -0.05973
charge of   22H =      0.07809
charge of   23H =      0.10582
charge of   24H =      0.04323
charge of   25H =      0.09802
charge of   26H =      0.09515
charge of   27H =      0.12242
charge of   28H =      0.10168
charge of   29H =      0.05479
charge of   30H =      0.08088
charge of   31H =      0.08010
charge of   32H =      0.04603
charge of   33H =      0.10582
charge of   34H =      0.06786
charge of   35H =      0.09228
Dipole moment(X, Y, Z, Debye): -0.37227, -0.84890, -0.02798
nelec by numeric integration = 146.00000005313967
    CPU time for vxc     37.79 sec, wall time     15.76 sec
E1 = -4088.4568506209116  Ecoul = 1888.9983961439254  Exc = -124.59258432146368
nelec by numeric integration = 146.00000005313967
    CPU time for vxc     37.66 sec, wall time     15.73 sec
E1 = -4088.4568506209116  Ecoul = 1888.9983961439252  Exc = -124.59258432146368
