System: uname_result(system='Linux', node='cosmopc18', release='5.15.0-97-generic', version='#107-Ubuntu SMP Wed Feb 7 13:26:48 UTC 2024', machine='x86_64')  Threads 4
Python 3.11.8 (main, Feb 26 2024, 21:39:34) [GCC 11.2.0]
numpy 1.26.4  scipy 1.11.4
Date: Tue Apr  9 16:13:46 2024
PySCF version 2.3.0
PySCF path  /home/saade/miniconda3/envs/tutorial/lib/python3.11/site-packages/pyscf

[ENV] PYSCFAD_BACKEND torch
[CONFIG] conf_file None
[INPUT] verbose = 5
[INPUT] max_memory = 4000 
[INPUT] num. atoms = 36
[INPUT] num. electrons = 146
[INPUT] charge = 0
[INPUT] spin (= nelec alpha-beta = 2S) = 0
[INPUT] symmetry False subgroup None
[INPUT] Mole.unit = angstrom
[INPUT] Symbol           X                Y                Z      unit          X                Y                Z       unit  Magmom
[INPUT]  1 C     -0.226058000000   3.684929000000   0.514690000000 AA   -0.427187708267   6.963506598467   0.972623139052 Bohr   0.0
[INPUT]  2 C     -0.014854000000   3.810689000000  -0.810216000000 AA   -0.028069991854   7.201158555893  -1.531086341741 Bohr   0.0
[INPUT]  3 C      0.041160000000   4.951132000000   1.216878000000 AA    0.077781127287   9.356283486570   2.299566147008 Bohr   0.0
[INPUT]  4 C     -0.059442000000   2.483458000000   1.487556000000 AA   -0.112329100296   4.693055461860   2.811073434954 Bohr   0.0
[INPUT]  5 C     -0.129335000000   4.886972000000  -1.414079000000 AA   -0.244407728321   9.235038658418  -2.672222028499 Bohr   0.0
[INPUT]  6 C     -0.186005000000   2.400328000000  -1.175630000000 AA   -0.351498507800   4.535962529125  -2.221618723822 Bohr   0.0
[INPUT]  7 C      0.046530000000   6.107664000000  -0.681259000000 AA    0.087928956576  11.541812220866  -1.287392929895 Bohr   0.0
[INPUT]  8 C     -0.104581000000   6.126746000000   0.553577000000 AA   -0.197629447833  11.577871974774   1.046108918858 Bohr   0.0
[INPUT]  9 C     -0.017581000000   1.086058000000   0.793269000000 AA   -0.033223274996   2.052352175393   1.499061153108 Bohr   0.0
[INPUT] 10 C      0.005172000000   1.106466000000  -0.742176000000 AA    0.009773663516   2.090917706143  -1.402509376225 Bohr   0.0
[INPUT] 11 C     -0.112077000000  -0.111172000000   1.463231000000 AA   -0.211794834863  -0.210084632720   2.765105846973 Bohr   0.0
[INPUT] 12 C      0.024854000000  -0.083854000000  -1.406982000000 AA    0.046967253100  -0.158461094449  -2.658810642193 Bohr   0.0
[INPUT] 13 C     -0.106406000000  -1.232560000000   0.688328000000 AA   -0.201078198010  -2.329200832094   1.300751403870 Bohr   0.0
[INPUT] 14 C      0.104663000000  -1.347474000000  -0.873491000000 AA    0.197784405375  -2.546356819972  -1.650658762272 Bohr   0.0
[INPUT] 15 C      0.062619000000  -2.449680000000   1.350923000000 AA    0.118332760194  -4.629224292825   2.552874485376 Bohr   0.0
[INPUT] 16 C      0.007234000000  -2.645657000000  -1.377963000000 AA    0.013670278785  -4.999567149538  -2.603972679784 Bohr   0.0
[INPUT] 17 C      0.127595000000  -3.625211000000   0.897161000000 AA    0.241119604864  -6.850655933761   1.695388579641 Bohr   0.0
[INPUT] 18 C     -0.023165000000  -3.712461000000  -0.654025000000 AA   -0.043775505676  -7.015534538129  -1.235928128619 Bohr   0.0
[INPUT] 19 C      0.016743000000  -4.846272000000   1.524374000000 AA    0.031639684504  -9.158126805148   2.880649371408 Bohr   0.0
[INPUT] 20 C     -0.121229000000  -5.044984000000  -1.380045000000 AA   -0.229089608355  -9.533638062813  -2.607907089575 Bohr   0.0
[INPUT] 21 C     -0.065452000000  -6.048938000000   0.863639000000 AA   -0.123686354305 -11.430836164474   1.632041180493 Bohr   0.0
[INPUT] 22 C     -0.157959000000  -6.037350000000  -0.862937000000 AA   -0.298499248910 -11.408938018143  -1.630714592754 Bohr   0.0
[INPUT] 23 H     -0.051938000000   4.953178000000   2.620672000000 AA   -0.098148595458   9.360149866221   4.952352342316 Bohr   0.0
[INPUT] 24 H      0.033060000000   2.342832000000   2.595965000000 AA    0.062474345678   4.427310835867   4.905662878957 Bohr   0.0
[INPUT] 25 H      0.047608000000   4.962674000000  -2.453537000000 AA    0.089966081338   9.378094705500  -4.636512966487 Bohr   0.0
[INPUT] 26 H      0.047046000000   2.450035000000  -2.519079000000 AA    0.088904055256   4.629895145599  -4.760369396143 Bohr   0.0
[INPUT] 27 H      0.058393000000   6.942636000000  -1.306241000000 AA    0.110346777592  13.119680622546  -2.468437742678 Bohr   0.0
[INPUT] 28 H      0.103795000000   7.244226000000   1.266921000000 AA    0.196144123099  13.689603124453   2.394133711460 Bohr   0.0
[INPUT] 29 H      0.024526000000  -0.138251000000   2.420768000000 AA    0.046347422931  -0.261256526447   4.574588531111 Bohr   0.0
[INPUT] 30 H     -0.030497000000   0.030305000000  -2.534069000000 AA   -0.057630977621   0.057268150205  -4.788696390750 Bohr   0.0
[INPUT] 31 H     -0.109263000000  -2.319289000000   2.369102000000 AA   -0.206477145548  -4.382821013716   4.476953941159 Bohr   0.0
[INPUT] 32 H     -0.075605000000  -2.432251000000  -2.513624000000 AA   -0.142872743648  -4.596288256199  -4.750060940134 Bohr   0.0
[INPUT] 33 H     -0.106024000000  -4.952473000000   2.468135000000 AA   -0.200356322631  -9.358817609303   4.664099188453 Bohr   0.0
[INPUT] 34 H     -0.010081000000  -4.965458000000  -2.637146000000 AA   -0.019050329062  -9.383355703031  -4.983483690492 Bohr   0.0
[INPUT] 35 H     -0.176877000000  -7.119909000000   1.512737000000 AA   -0.334249087735 -13.454678041826   2.858658628496 Bohr   0.0
[INPUT] 36 H     -0.095884000000  -7.155511000000  -1.362107000000 AA   -0.181194499728 -13.521956071313  -2.574009182353 Bohr   0.0
[INPUT] ---------------- BASIS SET ---------------- 
[INPUT] l, kappa, [nprim/nctr], expnt,             c_1 c_2 ...
[INPUT] H
[INPUT] 0    0    [3    /1   ]  3.42525091        0.15432897
                                0.62391373        0.53532814
                                0.1688554         0.44463454
[INPUT] C
[INPUT] 0    0    [3    /1   ]  71.616837         0.15432897
                                13.045096         0.53532814
                                3.5305122         0.44463454
[INPUT] 0    0    [3    /1   ]  2.9412494         -0.09996723
                                0.6834831         0.39951283
                                0.2222899         0.70011547
[INPUT] 1    0    [3    /1   ]  2.9412494         0.15591627
                                0.6834831         0.60768372
                                0.2222899         0.39195739

nuclear repulsion = 1494.65920146514
number of shells = 80
number of NR pGTOs = 372
number of NR cGTOs = 124
basis = sto3g
ecp = {}
CPU time:     57320.86
atom C rad-grids = 99, ang-grids = [ 50  50  50  50  50  50  50  50  50  50  50  50  50  50  50  50  50  50
  50  50  50  50  50  50  50  50  50  50  50  50  50  86  86  86  86  86
  86  86  86  86  86  86  86 434 434 434 434 434 434 434 434 434 590 590
 590 590 590 590 590 590 590 590 590 590 590 590 590 590 590 590 590 590
 590 590 590 590 590 590 590 434 434 434 434 434 434 434 434 434 434 434
 434 434 434 434 434 434 434 434 434]
atom H rad-grids = 99, ang-grids = [ 50  50  50  50  50  50  50  50  50  50  50  50  50  50  50  50  50  50
  50  50  50  50  50  50  50  50  50  50  86  86  86  86  86  86  86 434
 434 434 434 434 434 434 434 590 590 590 590 590 590 590 590 590 590 590
 590 590 590 590 590 590 590 590 590 590 590 590 590 590 590 434 434 434
 434 434 434 434 434 434 434 434 434 434 434 434 434 434 434 434 434 434
 434 434 434 434 434 434 434 434 434]
tot_boxes 5440, boxes in each direction [ 8 30 15]
Padding 0 grids
tot grids = 1157832


******** <class 'pyscf.dft.rks.RKS'> ********
method = RKS
initial guess = minao
damping factor = 0
level_shift factor = 0
DIIS = <class 'pyscf.scf.diis.CDIIS'>
diis_start_cycle = 1
diis_space = 8
SCF conv_tol = 1e-10
SCF conv_tol_grad = None
SCF max_cycles = 50
direct_scf = True
direct_scf_tol = 1e-13
chkfile to save SCF result = /home/saade/mlelec/tutorials/tmptim4f4bz
max_memory 4000 MB (current use 690 MB)
XC library pyscf.dft.libxc version 6.1.0
    S. Lehtola, C. Steigemann, M. J.T. Oliveira, and M. A.L. Marques.,  SoftwareX 7, 1–5 (2018)
XC functionals = b3lypg
    P. J. Stephens, F. J. Devlin, C. F. Chabalowski, and M. J. Frisch.,  J. Phys. Chem. 98, 11623 (1994)
radial grids: 
    Treutler-Ahlrichs [JCP 102, 346 (1995); DOI:10.1063/1.469408] (M4) radial grids
    
becke partition: Becke, JCP 88, 2547 (1988); DOI:10.1063/1.454033
pruning grids: <function nwchem_prune at 0x7f9db5616ca0>
grids dens level: 3
symmetrized grids: False
atomic radii adjust function: <function treutler_atomic_radii_adjust at 0x7f9db5617380>
User specified grid scheme (99, 590)
small_rho_cutoff = 1e-07
Set gradient conv threshold to 1e-05
Initial guess from minao.
nelec by numeric integration = 145.2716351281862
    CPU time for vxc     37.51 sec, wall time     15.64 sec
E1 = -4089.754437628918  Ecoul = 1879.7412249546887  Exc = -125.96526264982667
init E= -841.31927385892
cond(S) = 27.11131431006486
    CPU time for initialize scf     47.17 sec, wall time     17.99 sec
  HOMO = -0.202533937383154  LUMO = -0.146751816933776
  mo_energy =
[-1.01317208e+01 -1.01307149e+01 -1.01268693e+01 -1.01224257e+01
 -1.01175389e+01 -1.01159977e+01 -1.01156411e+01 -1.01118841e+01
 -1.01108984e+01 -1.01103387e+01 -1.01074447e+01 -1.01065109e+01
 -1.01027376e+01 -1.01021820e+01 -1.00999080e+01 -1.00980929e+01
 -1.00943323e+01 -1.00887609e+01 -1.00859236e+01 -1.00751545e+01
 -1.00720036e+01 -1.00591808e+01 -1.09577259e+00 -1.08452724e+00
 -1.03404351e+00 -9.89312154e-01 -9.64025381e-01 -9.50517734e-01
 -9.22649959e-01 -8.93215531e-01 -8.66040442e-01 -8.53343053e-01
 -7.88659327e-01 -7.60565060e-01 -7.13263477e-01 -6.98980279e-01
 -6.81609259e-01 -6.59488895e-01 -6.52708112e-01 -6.39881960e-01
 -5.90600363e-01 -5.83821724e-01 -5.65399027e-01 -5.36039591e-01
 -5.26898229e-01 -5.21296347e-01 -5.10540782e-01 -4.99356360e-01
 -4.89976201e-01 -4.78824247e-01 -4.70771448e-01 -4.65077674e-01
 -4.60252063e-01 -4.59670139e-01 -4.36258371e-01 -4.33309495e-01
 -4.19760500e-01 -4.13935042e-01 -3.97986114e-01 -3.90789946e-01
 -3.87375966e-01 -3.67252615e-01 -3.58119751e-01 -3.56424378e-01
 -3.46545230e-01 -3.30258825e-01 -3.26444958e-01 -3.03696053e-01
 -3.00408995e-01 -2.85300121e-01 -2.69714736e-01 -2.62581014e-01
 -2.02533937e-01 -1.46751817e-01 -8.27121008e-02 -7.89480463e-02
 -3.94364665e-02 -1.79290941e-02  7.93293129e-03  3.06000902e-02
  5.26471890e-02  7.07091573e-02  7.34762587e-02  9.55695190e-02
  1.05291662e-01  1.34692592e-01  1.40730706e-01  1.46775196e-01
  1.68908714e-01  1.71900633e-01  1.74285137e-01  1.84842544e-01
  1.99760455e-01  2.13473316e-01  2.16767550e-01  2.33835844e-01
  2.50084428e-01  3.03529513e-01  3.10250753e-01  3.26346620e-01
  3.41946180e-01  3.60535652e-01  3.84958331e-01  3.92354311e-01
  4.06121123e-01  4.22899438e-01  4.46883424e-01  4.53489043e-01
  4.62008040e-01  4.83893057e-01  5.14835145e-01  5.32780614e-01
  5.47027917e-01  5.59058748e-01  5.71057434e-01  6.01918828e-01
  6.30270264e-01  6.51715691e-01  6.61759604e-01  6.82945949e-01
  7.01941235e-01  7.74841737e-01  8.04512940e-01  9.43452706e-01]
nelec by numeric integration = 145.99999549245032
    CPU time for vxc     37.99 sec, wall time     15.83 sec
E1 = -4105.097664895082  Ecoul = 1899.3574826108406  Exc = -124.6246556458936
cycle= 1 E= -835.705636464999  delta_E= 5.61  |g|= 0.31  |ddm|= 9.27
    CPU time for cycle= 1     38.35 sec, wall time     15.88 sec
  HOMO = -0.0873640451255708  LUMO = 0.0028038284763222
  mo_energy =
[-1.00734077e+01 -1.00346447e+01 -1.00307169e+01 -1.00192148e+01
 -1.00168806e+01 -1.00077561e+01 -1.00019295e+01 -1.00011773e+01
 -9.99617276e+00 -9.99570244e+00 -9.98908209e+00 -9.98753235e+00
 -9.97192193e+00 -9.96850414e+00 -9.96352983e+00 -9.96255565e+00
 -9.96210487e+00 -9.95097504e+00 -9.94538374e+00 -9.94387195e+00
 -9.93606535e+00 -9.90294173e+00 -8.49985638e-01 -8.13237523e-01
 -7.85315007e-01 -7.62033970e-01 -7.43478370e-01 -7.33667120e-01
 -7.11926241e-01 -7.05835502e-01 -6.69339294e-01 -6.67331501e-01
 -6.22219518e-01 -6.01582766e-01 -5.62556053e-01 -5.58418685e-01
 -5.31127463e-01 -5.21870857e-01 -5.16502276e-01 -5.04623000e-01
 -4.70029381e-01 -4.59718487e-01 -4.40415733e-01 -4.20968808e-01
 -4.18249441e-01 -4.12164895e-01 -3.95988035e-01 -3.91225947e-01
 -3.81749833e-01 -3.75208128e-01 -3.54599086e-01 -3.50999346e-01
 -3.47232411e-01 -3.42873825e-01 -3.41163988e-01 -3.30778498e-01
 -3.19904104e-01 -3.09355423e-01 -2.98158896e-01 -2.92718700e-01
 -2.67631781e-01 -2.65352800e-01 -2.54859555e-01 -2.50448964e-01
 -2.34370734e-01 -2.28215339e-01 -2.15173538e-01 -2.05872584e-01
 -1.94491749e-01 -1.82580153e-01 -1.49608625e-01 -1.46548605e-01
 -8.73640451e-02  2.80382848e-03  6.61113413e-02  7.10863207e-02
  1.11292333e-01  1.28903486e-01  1.64302499e-01  1.76897071e-01
  1.86110286e-01  1.93260065e-01  2.31580521e-01  2.47964577e-01
  2.60385277e-01  2.62208648e-01  2.74276081e-01  2.77489695e-01
  2.85317014e-01  3.14789079e-01  3.20970901e-01  3.37653246e-01
  3.51174264e-01  3.71609428e-01  3.75694857e-01  3.88844791e-01
  4.13733520e-01  4.50971122e-01  4.69908378e-01  4.81341976e-01
  4.94950480e-01  5.14245354e-01  5.21983263e-01  5.51729353e-01
  5.68622805e-01  5.79245140e-01  5.96001265e-01  6.15122873e-01
  6.24493268e-01  6.46460960e-01  6.69789120e-01  6.83076095e-01
  7.20192160e-01  7.32882802e-01  7.41234853e-01  7.80834075e-01
  7.96450823e-01  8.13463547e-01  8.28030908e-01  8.46066083e-01
  8.85781773e-01  9.65730057e-01  9.68224810e-01  1.11420648e+00]
nelec by numeric integration = 145.9999956878161
    CPU time for vxc     38.57 sec, wall time     15.88 sec
E1 = -4098.479476316735  Ecoul = 1892.6168381516322  Exc = -124.4658697439836
cycle= 2 E= -835.66930644395  delta_E= 0.0363  |g|= 0.458  |ddm|=  1.2
    CPU time for cycle= 2     38.97 sec, wall time     15.95 sec
  HOMO = -0.0995696415134182  LUMO = -0.0107764205837706
  mo_energy =
[-10.03515428 -10.02793829 -10.0269782  -10.02166581 -10.01984478
 -10.01972419 -10.01768212 -10.01690134 -10.01339518 -10.01292425
 -10.01029818 -10.0100101  -10.00783012 -10.00571386 -10.00519399
 -10.0033405  -10.00110669  -9.9985859   -9.99443882  -9.99033053
  -9.97957945  -9.95568692  -0.86117927  -0.84174821  -0.80950627
  -0.78097799  -0.76601792  -0.75447912  -0.73735388  -0.71277961
  -0.69205301  -0.68486376  -0.63325796  -0.6147333   -0.57763307
  -0.57066713  -0.55301876  -0.53411792  -0.52990472  -0.519766
  -0.48477861  -0.4771788   -0.45774062  -0.43355582  -0.42808134
  -0.42080903  -0.41108044  -0.40470087  -0.39673084  -0.38928333
  -0.37108767  -0.36878684  -0.3654091   -0.3548172   -0.34727378
  -0.34651879  -0.32963725  -0.31649399  -0.31119356  -0.30617048
  -0.28574134  -0.27384467  -0.27125913  -0.26316106  -0.25175963
  -0.2433254   -0.23224341  -0.22119759  -0.20543447  -0.20154943
  -0.16690252  -0.16491218  -0.09956964  -0.01077642   0.05292455
   0.05812546   0.10173026   0.119653     0.15065084   0.1734442
   0.18755975   0.19582448   0.20708857   0.22953014   0.2476568
   0.26530581   0.27190321   0.28315396   0.29792413   0.30644127
   0.30864758   0.32493749   0.33657985   0.34583267   0.35462666
   0.37525931   0.39602537   0.43802605   0.4535623    0.46220214
   0.47927175   0.50087466   0.52257664   0.52632074   0.54960435
   0.55764102   0.58143136   0.59787579   0.60422231   0.62994317
   0.65558045   0.66998154   0.68808458   0.69979832   0.71388595
   0.74699632   0.77128668   0.79105777   0.80619233   0.82242346
   0.84558893   0.9241296    0.94489075   1.09971294]
nelec by numeric integration = 145.9999955238459
    CPU time for vxc     37.61 sec, wall time     15.60 sec
E1 = -4101.400306875722  Ecoul = 1895.5067316010477  Exc = -124.49844456773569
cycle= 3 E= -835.732818377274  delta_E= -0.0635  |g|= 0.193  |ddm|= 0.943
    CPU time for cycle= 3     38.02 sec, wall time     15.67 sec
  HOMO = -0.108626788173598  LUMO = -0.0197237255463901
  mo_energy =
[-10.03601447 -10.03105491 -10.02942498 -10.02695177 -10.02630045
 -10.0260438  -10.0243834  -10.02254786 -10.02206407 -10.0210457
 -10.01892667 -10.01647152 -10.01560418 -10.01518227 -10.0146724
 -10.01444978 -10.0106272  -10.01045778 -10.01041005 -10.00950702
 -10.00137293  -9.99029355  -0.86726914  -0.84643748  -0.81494466
  -0.78785693  -0.77072677  -0.76131683  -0.73987769  -0.72263313
  -0.69753099  -0.6892801   -0.64038258  -0.62263119  -0.58306844
  -0.57657119  -0.55591097  -0.54026983  -0.5347824   -0.52546155
  -0.48867675  -0.4813057   -0.46295741  -0.43835308  -0.43358837
  -0.42537633  -0.4177593   -0.40985008  -0.40047394  -0.39359658
  -0.37535439  -0.37240144  -0.36960898  -0.36024205  -0.35588458
  -0.35091131  -0.33639593  -0.32245543  -0.31564594  -0.31321086
  -0.29254857  -0.28379905  -0.27594421  -0.26946791  -0.25719716
  -0.24806639  -0.23652421  -0.22513567  -0.2152772   -0.20321614
  -0.17470081  -0.16862619  -0.10862679  -0.01972373   0.04840698
   0.05076635   0.09104279   0.11248393   0.14510535   0.16563292
   0.18141961   0.18940303   0.20068641   0.23488077   0.24107471
   0.25873414   0.26781329   0.27494641   0.29240705   0.2983325
   0.30526251   0.32032907   0.33166284   0.34255499   0.35227617
   0.36988636   0.38858654   0.43228777   0.44743016   0.46182444
   0.47302126   0.49219541   0.51710294   0.51892228   0.54407425
   0.55298636   0.5747022    0.58998131   0.59747914   0.62074561
   0.6509793    0.66189771   0.68273361   0.70013939   0.7070282
   0.7430556    0.77090912   0.78245513   0.80055007   0.81790556
   0.84471403   0.91893497   0.93904656   1.08480589]
nelec by numeric integration = 145.99999559328612
    CPU time for vxc     39.02 sec, wall time     16.05 sec
E1 = -4101.570069649299  Ecoul = 1895.683791612751  Exc = -124.51662796106817
cycle= 4 E= -835.74370453248  delta_E= -0.0109  |g|= 0.0916  |ddm|= 0.443
    CPU time for cycle= 4     39.39 sec, wall time     16.12 sec
  HOMO = -0.108407925354652  LUMO = -0.0198548249561739
  mo_energy =
[-10.03981375 -10.03266206 -10.03194503 -10.0289633  -10.02873244
 -10.02849963 -10.02733803 -10.02413847 -10.02277555 -10.02216408
 -10.02184075 -10.01985354 -10.01731153 -10.01692356 -10.01648164
 -10.01493871 -10.00866405 -10.0086098  -10.00675454 -10.00670614
 -10.00329895  -9.99874546  -0.86771239  -0.84715734  -0.81659215
  -0.78918421  -0.77191317  -0.76152615  -0.74198864  -0.72149571
  -0.698178    -0.6913717   -0.63964976  -0.623097    -0.58388763
  -0.57715189  -0.55587172  -0.54023313  -0.53711843  -0.52549662
  -0.48930153  -0.48241008  -0.46326756  -0.43874259  -0.43493073
  -0.42450957  -0.41683246  -0.41024984  -0.40116986  -0.39412974
  -0.37685581  -0.37384522  -0.37062482  -0.36116902  -0.35497033
  -0.35437969  -0.33682136  -0.32331929  -0.31750231  -0.31324275
  -0.29339072  -0.28121819  -0.27733     -0.2704424   -0.25755845
  -0.24996056  -0.23932796  -0.22755423  -0.21391963  -0.20657864
  -0.1746682   -0.17284511  -0.10840793  -0.01985482   0.04510619
   0.05034527   0.09213878   0.11069569   0.14463735   0.16483888
   0.18167648   0.18717663   0.19910634   0.22949937   0.23971941
   0.25904095   0.26616985   0.27554721   0.28871041   0.29942899
   0.30340474   0.31852163   0.32791806   0.34236663   0.34996633
   0.37027996   0.38914553   0.43257671   0.44759011   0.45978502
   0.47263657   0.49441794   0.5180931    0.51992719   0.54532629
   0.55293214   0.57484807   0.58863742   0.59662709   0.6208437
   0.65065643   0.66247285   0.68271114   0.6964155    0.7073335
   0.74226434   0.76867573   0.78263543   0.79883333   0.81632551
   0.8423913    0.91933678   0.93847317   1.08252968]
nelec by numeric integration = 145.99999557770474
    CPU time for vxc     38.11 sec, wall time     15.69 sec
E1 = -4101.725682359787  Ecoul = 1895.8387121995404  Exc = -124.51882336635823
cycle= 5 E= -835.746592061469  delta_E= -0.00289  |g|= 0.0307  |ddm|=  0.2
    CPU time for cycle= 5     38.77 sec, wall time     15.79 sec
  HOMO = -0.108206923297231  LUMO = -0.0191381930056955
  mo_energy =
[-10.03784907 -10.03284508 -10.02933938 -10.02891382 -10.02762902
 -10.02598614 -10.02350384 -10.02209693 -10.02164728 -10.02122668
 -10.01689945 -10.01630879 -10.01606553 -10.01393084 -10.01334398
 -10.01290517 -10.0101496  -10.01006111 -10.00770133 -10.00331821
 -10.00295925 -10.00145496  -0.86634942  -0.84643751  -0.81518689
  -0.78723266  -0.7708907   -0.76067192  -0.74102933  -0.72071667
  -0.69721478  -0.69050129  -0.6392462   -0.622349    -0.58313128
  -0.57617239  -0.55572552  -0.53971456  -0.53579824  -0.52480439
  -0.48841532  -0.48145708  -0.46248008  -0.43814348  -0.4335636
  -0.42435319  -0.41644803  -0.4091721   -0.4002576   -0.39341578
  -0.37546003  -0.37325442  -0.36975176  -0.36033007  -0.35423204
  -0.35315455  -0.33592896  -0.32221469  -0.31666089  -0.31280305
  -0.29194641  -0.2816429   -0.27674055  -0.26972728  -0.25688344
  -0.24898665  -0.23800838  -0.22647905  -0.21358416  -0.20620479
  -0.1740799   -0.17166501  -0.10820692  -0.01913819   0.04677029
   0.05082397   0.09259476   0.11190493   0.1453143    0.16568132
   0.18253516   0.18896128   0.20087075   0.23042186   0.2410373
   0.25963198   0.26716846   0.27604805   0.29117153   0.2998816
   0.3044288    0.31967499   0.3299921    0.34226783   0.35063672
   0.37056622   0.38903745   0.4334096    0.44802426   0.46063928
   0.4734241    0.49429525   0.5185635    0.51993419   0.54541627
   0.55376566   0.57564036   0.59042231   0.59788307   0.62130408
   0.65117618   0.66324209   0.68305714   0.69774451   0.70759439
   0.74257148   0.76946756   0.78379183   0.80003683   0.81764305
   0.842895     0.91962027   0.9402404    1.0869394 ]
nelec by numeric integration = 145.9999955748984
    CPU time for vxc     37.97 sec, wall time     15.65 sec
E1 = -4101.6495842141285  Ecoul = 1895.758148159363  Exc = -124.51470089069541
cycle= 6 E= -835.746935480325  delta_E= -0.000343  |g|= 0.00648  |ddm|= 0.0544
    CPU time for cycle= 6     38.44 sec, wall time     15.73 sec
  HOMO = -0.107871757146509  LUMO = -0.0187213293655482
  mo_energy =
[-10.03797039 -10.03128518 -10.02817088 -10.02795254 -10.02686454
 -10.0264782  -10.02253551 -10.02205936 -10.02184366 -10.02161051
 -10.01592312 -10.01577857 -10.0156583  -10.01429568 -10.01354238
 -10.01311349 -10.00897892 -10.00833494 -10.00730963 -10.00303218
 -10.00270861 -10.00068809  -0.86644237  -0.84573766  -0.81473108
  -0.78706356  -0.77048061  -0.76027245  -0.74052112  -0.72064361
  -0.69672203  -0.68997367  -0.63883738  -0.62200736  -0.58272937
  -0.57599521  -0.55521265  -0.53940246  -0.53543193  -0.52453595
  -0.48830192  -0.48102462  -0.46216545  -0.43786973  -0.43344143
  -0.42409601  -0.41619245  -0.40904345  -0.40010319  -0.3932327
  -0.37510033  -0.3729199   -0.36965902  -0.35981911  -0.35400977
  -0.35278907  -0.33568718  -0.32196479  -0.31635941  -0.31256741
  -0.29171716  -0.28127794  -0.27641166  -0.26941469  -0.25670562
  -0.24859251  -0.23764224  -0.22605211  -0.21337301  -0.20596081
  -0.17365101  -0.17106076  -0.10787176  -0.01872133   0.04727028
   0.05127      0.09297059   0.11216256   0.14564537   0.16612101
   0.18254623   0.18890792   0.20110891   0.23073594   0.24125963
   0.25980609   0.26734876   0.27624553   0.29124342   0.29998641
   0.30476718   0.32011302   0.33021346   0.34311251   0.35093254
   0.37094479   0.38962349   0.43366807   0.44852876   0.46088003
   0.47370384   0.49471455   0.51874821   0.52045692   0.54587029
   0.5538542    0.57573875   0.5907809    0.59830816   0.62190189
   0.65170215   0.66340152   0.68360619   0.69825224   0.70821171
   0.74331016   0.76998609   0.78363414   0.8005083    0.8177736
   0.84360644   0.92045868   0.93985365   1.08668482]
nelec by numeric integration = 145.99999557630485
    CPU time for vxc     37.86 sec, wall time     15.65 sec
E1 = -4101.605152971054  Ecoul = 1895.713232665795  Exc = -124.5142304630765
cycle= 7 E= -835.746949303199  delta_E= -1.38e-05  |g|= 0.00143  |ddm|= 0.0106
    CPU time for cycle= 7     38.36 sec, wall time     15.73 sec
  HOMO = -0.107839555763038  LUMO = -0.0186697877296261
  mo_energy =
[-10.03778043 -10.03165399 -10.02822679 -10.02817549 -10.0269203
 -10.02683954 -10.02242766 -10.02235446 -10.02204858 -10.02130478
 -10.01601074 -10.01596969 -10.01571789 -10.0139766  -10.01380212
 -10.01313803 -10.00898751 -10.00858113 -10.00702314 -10.00285189
 -10.00281502 -10.0004678   -0.86633471  -0.84588907  -0.81481082
  -0.78715949  -0.77054142  -0.76031969  -0.74056363  -0.72057926
  -0.69679554  -0.69002147  -0.63879712  -0.62201689  -0.58274625
  -0.57599412  -0.55526824  -0.53939008  -0.53549976  -0.52456118
  -0.48827155  -0.48114255  -0.4622056   -0.43786226  -0.43348016
  -0.42404262  -0.41619949  -0.40913109  -0.40009989  -0.39323411
  -0.37520679  -0.37293652  -0.36960436  -0.35993772  -0.35397975
  -0.35289297  -0.335742    -0.32200338  -0.31637323  -0.31259842
  -0.29182103  -0.28126552  -0.27642512  -0.26943018  -0.25666226
  -0.24865999  -0.23772033  -0.22613342  -0.21333249  -0.20582027
  -0.17370446  -0.17114818  -0.10783956  -0.01866979   0.04721238
   0.05123827   0.09297491   0.11216931   0.14565881   0.16605874
   0.18251581   0.18883015   0.20096582   0.23089114   0.24122825
   0.25978048   0.26728574   0.27627882   0.29112934   0.30003207
   0.30467384   0.32000697   0.33008267   0.34301982   0.35104124
   0.37100786   0.38963651   0.43357528   0.44850237   0.46091248
   0.47370389   0.49474531   0.51877029   0.52037474   0.54584797
   0.55388647   0.57578641   0.59065014   0.59821096   0.62188532
   0.65163765   0.66341775   0.68356788   0.69820873   0.7081702
   0.74323735   0.76997008   0.78374332   0.80042325   0.81782189
   0.84356904   0.92026855   0.94002619   1.08641771]
nelec by numeric integration = 145.99999557648178
    CPU time for vxc     38.00 sec, wall time     15.73 sec
E1 = -4101.6127316346465  Ecoul = 1895.720929332308  Exc = -124.51434910458364
cycle= 8 E= -835.746949941786  delta_E= -6.39e-07  |g|= 0.000671  |ddm|= 0.003
    CPU time for cycle= 8     38.49 sec, wall time     15.80 sec
  HOMO = -0.107886455587209  LUMO = -0.0186912007292763
  mo_energy =
[-10.03786178 -10.03160433 -10.02828152 -10.02811049 -10.02694955
 -10.02677004 -10.02236044 -10.02232043 -10.02201992 -10.02135452
 -10.015992   -10.01583989 -10.01573305 -10.01403943 -10.0137573
 -10.01319075 -10.00905908 -10.00862253 -10.00715177 -10.00297293
 -10.00282464 -10.00059459  -0.86636097  -0.84588167  -0.81482542
  -0.78715819  -0.77054453  -0.76033037  -0.74058581  -0.72059423
  -0.69681386  -0.69002863  -0.63883424  -0.6220292   -0.58276693
  -0.57599656  -0.55528341  -0.5394106   -0.53551474  -0.52457366
  -0.48829027  -0.48114296  -0.46222175  -0.43787118  -0.43348255
  -0.4240726   -0.41621628  -0.40912337  -0.40011364  -0.39324638
  -0.37520773  -0.37294821  -0.36962319  -0.35993032  -0.35400423
  -0.3528942   -0.3357477   -0.32200951  -0.31637301  -0.31259198
  -0.29181594  -0.28126792  -0.27642287  -0.26943687  -0.25667966
  -0.2486641   -0.23772285  -0.22613996  -0.21334763  -0.20583498
  -0.17371672  -0.17116258  -0.10788646  -0.0186912    0.0472021
   0.0512329    0.0929555    0.11215777   0.14563557   0.16605907
   0.18255001   0.18884938   0.20097872   0.23086749   0.24122217
   0.25979159   0.26729372   0.2762628    0.29112763   0.3000231
   0.30468436   0.32001397   0.33008698   0.34301528   0.35100843
   0.37096386   0.38960615   0.4335832    0.44848057   0.46089892
   0.47370105   0.49469681   0.51877049   0.52035921   0.54582549
   0.55386155   0.57577025   0.59065118   0.59819862   0.62183687
   0.65162019   0.66341291   0.68354648   0.69819171   0.70813618
   0.74321547   0.76994326   0.78373465   0.80043043   0.81780207
   0.84354176   0.92028052   0.93999204   1.08645842]
nelec by numeric integration = 145.9999955766604
    CPU time for vxc     38.12 sec, wall time     15.71 sec
E1 = -4101.613840009518  Ecoul = 1895.7220618453919  Exc = -124.5143733881927
cycle= 9 E= -835.746950087183  delta_E= -1.45e-07  |g|= 0.000261  |ddm|= 0.00116
    CPU time for cycle= 9     38.58 sec, wall time     15.79 sec
  HOMO = -0.107882337410954  LUMO = -0.0186875581751538
  mo_energy =
[-10.03786324 -10.03160241 -10.02823451 -10.02812576 -10.02694576
 -10.02675143 -10.02239403 -10.02229573 -10.0220443  -10.02139927
 -10.0160168  -10.01586944 -10.01575883 -10.01404526 -10.01376367
 -10.01318476 -10.00902464 -10.00862808 -10.00715374 -10.00296691
 -10.00283762 -10.00053609  -0.86636663  -0.84588876  -0.81482392
  -0.78715559  -0.77055115  -0.76033432  -0.74059132  -0.72059214
  -0.69681423  -0.69003184  -0.63882707  -0.62203169  -0.58276804
  -0.57600076  -0.5552878   -0.53940703  -0.53551454  -0.52457527
  -0.48829523  -0.48114418  -0.4622226   -0.43787228  -0.43348565
  -0.42407516  -0.41621338  -0.4091227   -0.40011628  -0.39325007
  -0.37520861  -0.37295147  -0.3696267   -0.35993546  -0.35399785
  -0.35289582  -0.33574443  -0.32201012  -0.31637243  -0.31259372
  -0.29181546  -0.28126003  -0.2764291   -0.26943779  -0.25668266
  -0.24866621  -0.23772636  -0.22614223  -0.21334379  -0.20583713
  -0.17371641  -0.17116695  -0.10788234  -0.01868756   0.04719929
   0.05123141   0.09296146   0.11215478   0.14563551   0.16605719
   0.18254898   0.18885296   0.20098016   0.23086102   0.24122086
   0.25979475   0.2672964    0.27627001   0.29113408   0.3000267
   0.30468095   0.32001026   0.33009086   0.34300696   0.35101197
   0.37097403   0.38961201   0.43358203   0.44848182   0.46088941
   0.47369317   0.49470769   0.51876787   0.52035737   0.54582211
   0.55385601   0.57576536   0.59065323   0.59819781   0.62184456
   0.65161707   0.66340894   0.68354051   0.69818401   0.70813713
   0.74320984   0.76994095   0.78372092   0.80042304   0.81779473
   0.84353484   0.92027417   0.93997882   1.08647465]
nelec by numeric integration = 145.99999557658995
    CPU time for vxc     37.83 sec, wall time     15.67 sec
E1 = -4101.613848431392  Ecoul = 1895.7220763525809  Exc = -124.51437949919077
cycle= 10 E= -835.746950112866  delta_E= -2.57e-08  |g|= 8.93e-05  |ddm|= 0.000455
    CPU time for cycle= 10     38.34 sec, wall time     15.75 sec
  HOMO = -0.107887332550439  LUMO = -0.018691144047394
  mo_energy =
[-10.03787003 -10.0316038  -10.02825384 -10.02812867 -10.02695448
 -10.02675633 -10.0223916  -10.02229749 -10.02203789 -10.0213772
 -10.01601577 -10.01587197 -10.01575328 -10.01405635 -10.01376545
 -10.01317039 -10.00903993 -10.00861938 -10.00715205 -10.00298991
 -10.00283632 -10.00054397  -0.86637023  -0.84588814  -0.81482591
  -0.78715771  -0.77055102  -0.76033491  -0.7405916   -0.72059726
  -0.69681409  -0.69003376  -0.63883122  -0.62203277  -0.58276977
  -0.57600295  -0.55528802  -0.5394113   -0.53551261  -0.52457567
  -0.48829584  -0.48114398  -0.46222206  -0.43787573  -0.43348451
  -0.4240773   -0.41621434  -0.40912289  -0.40011777  -0.39325055
  -0.37520772  -0.37295468  -0.36963056  -0.35993529  -0.35400098
  -0.35289322  -0.33574416  -0.32201119  -0.31637686  -0.31259375
  -0.29181648  -0.2812636   -0.27643125  -0.26944042  -0.25668617
  -0.24866661  -0.23772601  -0.22614201  -0.21334849  -0.20585146
  -0.17371745  -0.17116724  -0.10788733  -0.01869114   0.0472
   0.05122871   0.09295861   0.1121532    0.14563259   0.16605657
   0.18254821   0.18885403   0.20098038   0.23084463   0.24121912
   0.25979287   0.26729523   0.27626479   0.29113866   0.30002307
   0.30467905   0.32000843   0.33009519   0.3430077    0.35100048
   0.37096721   0.38960651   0.4335819    0.44847959   0.46088642
   0.47369278   0.49470388   0.51876686   0.52035817   0.5458226
   0.5538549    0.57576449   0.5906543    0.59819983   0.62184506
   0.65161787   0.66340702   0.68354177   0.69817974   0.70813728
   0.74321059   0.76993586   0.78372216   0.80042082   0.81779139
   0.84353224   0.9202755    0.93997789   1.08647315]
nelec by numeric integration = 145.99999557656957
    CPU time for vxc     38.18 sec, wall time     15.69 sec
E1 = -4101.614129375048  Ecoul = 1895.7223582580586  Exc = -124.5143804636727
cycle= 11 E= -835.746950115526  delta_E= -2.66e-09  |g|= 3.33e-05  |ddm|= 0.000177
    CPU time for cycle= 11     38.65 sec, wall time     15.76 sec
  HOMO = -0.107884545222275  LUMO = -0.0186878601176108
  mo_energy =
[-10.03786267 -10.03160576 -10.02824561 -10.02812473 -10.026952
 -10.02675773 -10.02238879 -10.02230108 -10.02204016 -10.02138091
 -10.01601359 -10.01586159 -10.01575607 -10.01405077 -10.01376534
 -10.01317644 -10.0090383  -10.00861905 -10.00714978 -10.00298101
 -10.00283676 -10.00053668  -0.86636558  -0.84588861  -0.81482549
  -0.78715736  -0.77054995  -0.76033424  -0.74059091  -0.72059287
  -0.6968141   -0.69003195  -0.63882842  -0.62203093  -0.58276842
  -0.57600046  -0.55528794  -0.53940864  -0.53551314  -0.52457451
  -0.48829421  -0.48114412  -0.46222193  -0.43787366  -0.43348432
  -0.4240755   -0.41621317  -0.40912281  -0.40011621  -0.39324955
  -0.37520821  -0.37295308  -0.3696274   -0.35993512  -0.35399818
  -0.35289407  -0.33574382  -0.32201058  -0.31637527  -0.31259298
  -0.29181662  -0.28126141  -0.27642972  -0.26943928  -0.25668388
  -0.24866659  -0.23772582  -0.22614195  -0.21334467  -0.2058457
  -0.17371645  -0.17116722  -0.10788455  -0.01868786   0.04720034
   0.05123074   0.0929611    0.11215544   0.14563442   0.16605713
   0.18254875   0.18885316   0.20097949   0.2308502    0.24122021
   0.25979418   0.26729568   0.27626802   0.29113606   0.30002618
   0.30467935   0.3200091    0.33009318   0.34300744   0.35100529
   0.37097063   0.38960887   0.43358225   0.44848093   0.46088854
   0.47369465   0.4947061    0.51877033   0.52035839   0.54582314
   0.55385669   0.575767     0.59065355   0.59819923   0.62184537
   0.65161867   0.66341068   0.68354216   0.69818186   0.70813766
   0.74321071   0.76993829   0.78372473   0.80042288   0.81779497
   0.84353336   0.92027472   0.9399815    1.08647092]
nelec by numeric integration = 145.9999955765706
    CPU time for vxc     37.98 sec, wall time     15.73 sec
E1 = -4101.613968773012  Ecoul = 1895.7221949658758  Exc = -124.51437777392889
cycle= 12 E= -835.746950115929  delta_E= -4.03e-10  |g|= 1.55e-05  |ddm|= 7.71e-05
    CPU time for cycle= 12     38.60 sec, wall time     15.82 sec
  HOMO = -0.107884324092978  LUMO = -0.0186876812279891
  mo_energy =
[-10.03786502 -10.0316036  -10.02824735 -10.0281241  -10.02695083
 -10.02675537 -10.02238867 -10.02229827 -10.02203754 -10.02138132
 -10.0160135  -10.01586567 -10.01575314 -10.01404991 -10.0137627
 -10.01317599 -10.00903405 -10.00861936 -10.0071472  -10.00298411
 -10.00283365 -10.00053611  -0.86636662  -0.84588694  -0.8148242
  -0.78715639  -0.77054962  -0.76033297  -0.74059025  -0.72059328
  -0.69681302  -0.69003142  -0.63882804  -0.6220307   -0.58276796
  -0.57600053  -0.55528671  -0.53940843  -0.53551261  -0.52457418
  -0.48829413  -0.48114324  -0.46222114  -0.43787329  -0.43348392
  -0.42407486  -0.41621268  -0.40912228  -0.40011596  -0.39324923
  -0.37520716  -0.37295258  -0.36962773  -0.35993399  -0.35399815
  -0.35289365  -0.33574344  -0.32200975  -0.3163747   -0.31259265
  -0.29181554  -0.28126104  -0.27642941  -0.26943842  -0.25668345
  -0.24866557  -0.2377252   -0.22614124  -0.21334488  -0.20584576
  -0.17371542  -0.17116648  -0.10788432  -0.01868768   0.047201
   0.0512313    0.09296136   0.11215533   0.14563495   0.16605819
   0.1825486    0.18885339   0.20098061   0.23085059   0.24122082
   0.25979396   0.26729572   0.27626772   0.29113652   0.30002571
   0.30468034   0.32001013   0.33009356   0.34300926   0.35100542
   0.37097124   0.38961005   0.43358296   0.44848207   0.46088893
   0.47369499   0.49470684   0.51876927   0.52035914   0.54582399
   0.55385696   0.57576665   0.59065475   0.59820034   0.62184637
   0.65161913   0.66340984   0.68354309   0.69818231   0.70813901
   0.74321202   0.76993888   0.78372409   0.80042361   0.81779461
   0.84353476   0.92027658   0.93998081   1.08647283]
nelec by numeric integration = 145.99999557658023
    CPU time for vxc     37.86 sec, wall time     15.67 sec
E1 = -4101.613919103622  Ecoul = 1895.7221446988776  Exc = -124.51437717639274
cycle= 13 E= -835.746950116001  delta_E= -7.23e-11  |g|= 7.92e-06  |ddm|= 3.24e-05
    CPU time for cycle= 13     38.40 sec, wall time     15.76 sec
  HOMO = -0.107884957753881  LUMO = -0.0186882109901901
  mo_energy =
[-10.03786498 -10.03160475 -10.02824571 -10.02812626 -10.02695252
 -10.02675728 -10.0223893  -10.02229974 -10.02204044 -10.02137995
 -10.01601512 -10.01586245 -10.0157565  -10.01405335 -10.01376581
 -10.01317468 -10.0090383  -10.0086206  -10.00715119 -10.00298192
 -10.00283768 -10.0005366   -0.86636646  -0.84588903  -0.81482578
  -0.78715741  -0.77055035  -0.76033474  -0.74059142  -0.72059354
  -0.69681447  -0.69003238  -0.63882877  -0.62203134  -0.58276886
  -0.57600093  -0.55528843  -0.53940908  -0.53551331  -0.52457495
  -0.48829471  -0.48114448  -0.46222227  -0.43787393  -0.43348454
  -0.42407603  -0.41621343  -0.40912298  -0.40011662  -0.39324991
  -0.37520846  -0.37295355  -0.36962803  -0.3599355   -0.35399863
  -0.35289426  -0.33574402  -0.32201078  -0.31637525  -0.31259304
  -0.29181669  -0.28126136  -0.27642995  -0.26943941  -0.25668428
  -0.24866681  -0.23772611  -0.22614222  -0.21334509  -0.20584567
  -0.17371685  -0.1711675   -0.10788496  -0.01868821   0.04720011
   0.0512303    0.09296073   0.112155     0.14563403   0.16605689
   0.18254903   0.1888535    0.20097951   0.23085028   0.24121994
   0.2597942    0.2672957    0.27626773   0.29113641   0.3000259
   0.30467912   0.3200087    0.33009322   0.34300702   0.35100508
   0.37097025   0.38960855   0.43358195   0.44848054   0.46088808
   0.47369419   0.49470557   0.51876997   0.52035784   0.54582264
   0.55385602   0.57576649   0.59065343   0.59819886   0.62184498
   0.65161805   0.66341002   0.68354161   0.69818107   0.70813707
   0.74321016   0.76993766   0.78372424   0.80042213   0.81779412
   0.84353269   0.92027443   0.93998046   1.08647156]
nelec by numeric integration = 145.9999955765741
    CPU time for vxc     38.24 sec, wall time     15.81 sec
E1 = -4101.614035087208  Ecoul = 1895.7222626000896  Exc = -124.51437909395925
Extra cycle  E= -835.746950115942  delta_E= 5.91e-11  |g|= 1.46e-05  |ddm|= 3.47e-05
    CPU time for scf_cycle    587.14 sec, wall time    239.40 sec
    CPU time for SCF    587.14 sec, wall time    239.40 sec
converged SCF energy = -835.746950115942
nelec by numeric integration = 145.9999955765741
    CPU time for vxc     38.27 sec, wall time     15.76 sec
 ** Mulliken pop  **
pop of  0 C 1s            1.99091
pop of  0 C 2s            1.16017
pop of  0 C 2px           0.98610
pop of  0 C 2py           0.92044
pop of  0 C 2pz           0.93465
pop of  1 C 1s            1.99045
pop of  1 C 2s            1.05478
pop of  1 C 2px           1.01259
pop of  1 C 2py           0.98067
pop of  1 C 2pz           0.98794
pop of  2 C 1s            1.99174
pop of  2 C 2s            1.23292
pop of  2 C 2px           0.91384
pop of  2 C 2py           0.94405
pop of  2 C 2pz           0.92373
pop of  3 C 1s            1.99145
pop of  3 C 2s            1.23773
pop of  3 C 2px           1.00517
pop of  3 C 2py           0.89066
pop of  3 C 2pz           0.94270
pop of  4 C 1s            1.99063
pop of  4 C 2s            1.10612
pop of  4 C 2px           1.02380
pop of  4 C 2py           0.96155
pop of  4 C 2pz           1.01281
pop of  5 C 1s            1.99155
pop of  5 C 2s            1.19059
pop of  5 C 2px           0.97314
pop of  5 C 2py           0.91685
pop of  5 C 2pz           0.93704
pop of  6 C 1s            1.99074
pop of  6 C 2s            1.10684
pop of  6 C 2px           0.98293
pop of  6 C 2py           1.00275
pop of  6 C 2pz           1.00229
pop of  7 C 1s            1.99108
pop of  7 C 2s            1.13644
pop of  7 C 2px           0.99578
pop of  7 C 2py           0.96537
pop of  7 C 2pz           0.98216
pop of  8 C 1s            1.99116
pop of  8 C 2s            1.18567
pop of  8 C 2px           0.95298
pop of  8 C 2py           0.93471
pop of  8 C 2pz           0.92634
pop of  9 C 1s            1.99058
pop of  9 C 2s            1.11588
pop of  9 C 2px           1.01405
pop of  9 C 2py           0.95613
pop of  9 C 2pz           0.94080
pop of  10 C 1s           1.99053
pop of  10 C 2s           1.11338
pop of  10 C 2px          1.03038
pop of  10 C 2py          0.97320
pop of  10 C 2pz          1.02417
pop of  11 C 1s           1.99070
pop of  11 C 2s           1.13459
pop of  11 C 2px          1.00315
pop of  11 C 2py          0.95257
pop of  11 C 2pz          0.98867
pop of  12 C 1s           1.99082
pop of  12 C 2s           1.14685
pop of  12 C 2px          0.95744
pop of  12 C 2py          0.94666
pop of  12 C 2pz          0.94319
pop of  13 C 1s           1.99085
pop of  13 C 2s           1.13737
pop of  13 C 2px          0.99051
pop of  13 C 2py          0.95355
pop of  13 C 2pz          0.92216
pop of  14 C 1s           1.99064
pop of  14 C 2s           1.09387
pop of  14 C 2px          1.00776
pop of  14 C 2py          0.98548
pop of  14 C 2pz          1.02206
pop of  15 C 1s           1.99077
pop of  15 C 2s           1.11569
pop of  15 C 2px          1.01776
pop of  15 C 2py          0.95857
pop of  15 C 2pz          0.99718
pop of  16 C 1s           1.99060
pop of  16 C 2s           1.08621
pop of  16 C 2px          1.01092
pop of  16 C 2py          0.98745
pop of  16 C 2pz          0.92695
pop of  17 C 1s           1.99089
pop of  17 C 2s           1.14522
pop of  17 C 2px          0.97800
pop of  17 C 2py          0.93380
pop of  17 C 2pz          0.93577
pop of  18 C 1s           1.99049
pop of  18 C 2s           1.10638
pop of  18 C 2px          1.04609
pop of  18 C 2py          0.96211
pop of  18 C 2pz          1.03212
pop of  19 C 1s           1.99163
pop of  19 C 2s           1.10970
pop of  19 C 2px          1.00243
pop of  19 C 2py          0.99446
pop of  19 C 2pz          0.98289
pop of  20 C 1s           1.99190
pop of  20 C 2s           1.26171
pop of  20 C 2px          0.94152
pop of  20 C 2py          0.93852
pop of  20 C 2pz          0.88493
pop of  21 C 1s           1.99210
pop of  21 C 2s           1.14020
pop of  21 C 2px          0.99419
pop of  21 C 2py          1.01380
pop of  21 C 2pz          0.93404
pop of  22 H 1s           0.96707
pop of  23 H 1s           0.91450
pop of  24 H 1s           0.90506
pop of  25 H 1s           1.00588
pop of  26 H 1s           0.90154
pop of  27 H 1s           0.94555
pop of  28 H 1s           0.89608
pop of  29 H 1s           0.92941
pop of  30 H 1s           0.91370
pop of  31 H 1s           0.91939
pop of  32 H 1s           0.89234
pop of  33 H 1s           0.92917
pop of  34 H 1s           0.93780
pop of  35 H 1s           0.92352
 ** Mulliken atomic charges  **
charge of    0C =      0.00773
charge of    1C =     -0.02644
charge of    2C =     -0.00628
charge of    3C =     -0.06771
charge of    4C =     -0.09491
charge of    5C =     -0.00917
charge of    6C =     -0.08555
charge of    7C =     -0.07083
charge of    8C =      0.00915
charge of    9C =     -0.01744
charge of   10C =     -0.13166
charge of   11C =     -0.06968
charge of   12C =      0.01504
charge of   13C =      0.00557
charge of   14C =     -0.09980
charge of   15C =     -0.07998
charge of   16C =     -0.00214
charge of   17C =      0.01632
charge of   18C =     -0.13719
charge of   19C =     -0.08111
charge of   20C =     -0.01858
charge of   21C =     -0.07432
charge of   22H =      0.03293
charge of   23H =      0.08550
charge of   24H =      0.09494
charge of   25H =     -0.00588
charge of   26H =      0.09846
charge of   27H =      0.05445
charge of   28H =      0.10392
charge of   29H =      0.07059
charge of   30H =      0.08630
charge of   31H =      0.08061
charge of   32H =      0.10766
charge of   33H =      0.07083
charge of   34H =      0.06220
charge of   35H =      0.07648
Dipole moment(X, Y, Z, Debye):  0.19096, -0.34887,  0.45753
nelec by numeric integration = 145.9999955765741
    CPU time for vxc     37.52 sec, wall time     15.66 sec
E1 = -4101.614035087208  Ecoul = 1895.72226260009  Exc = -124.51437909395926
nelec by numeric integration = 145.9999955765741
    CPU time for vxc     37.68 sec, wall time     15.62 sec
E1 = -4101.614035087208  Ecoul = 1895.7222626000896  Exc = -124.51437909395926
