System: uname_result(system='Linux', node='cosmopc18', release='5.15.0-97-generic', version='#107-Ubuntu SMP Wed Feb 7 13:26:48 UTC 2024', machine='x86_64')  Threads 4
Python 3.11.8 (main, Feb 26 2024, 21:39:34) [GCC 11.2.0]
numpy 1.26.4  scipy 1.11.4
Date: Tue Apr  9 17:05:16 2024
PySCF version 2.3.0
PySCF path  /home/saade/miniconda3/envs/tutorial/lib/python3.11/site-packages/pyscf

[ENV] PYSCFAD_BACKEND torch
[CONFIG] conf_file None
[INPUT] verbose = 5
[INPUT] max_memory = 4000 
[INPUT] num. atoms = 36
[INPUT] num. electrons = 146
[INPUT] charge = 0
[INPUT] spin (= nelec alpha-beta = 2S) = 0
[INPUT] symmetry False subgroup None
[INPUT] Mole.unit = angstrom
[INPUT] Symbol           X                Y                Z      unit          X                Y                Z       unit  Magmom
[INPUT]  1 C      0.006607000000   3.686798000000   0.739913000000 AA    0.012485420505   6.967038496594   1.398232926005 Bohr   0.0
[INPUT]  2 C      0.031423000000   3.590550000000  -0.705554000000 AA    0.059380864012   6.785156136557  -1.333303826091 Bohr   0.0
[INPUT]  3 C      0.022203000000   4.894278000000   1.143559000000 AA    0.041957589144   9.248844997484   2.161013317281 Bohr   0.0
[INPUT]  4 C      0.095447000000   2.630215000000   1.499666000000 AA    0.180368689411   4.970385998723   2.833958018322 Bohr   0.0
[INPUT]  5 C      0.060648000000   4.882959000000  -1.316910000000 AA    0.114608110003   9.227455187480  -2.488599230701 Bohr   0.0
[INPUT]  6 C     -0.022172000000   2.381769000000  -1.273197000000 AA   -0.041899007634   4.500891101979  -2.405993632618 Bohr   0.0
[INPUT]  7 C      0.029072000000   6.135665000000  -0.530189000000 AA    0.054938117893  11.594726442079  -1.001912004257 Bohr   0.0
[INPUT]  8 C      0.122684000000   6.156818000000   0.689953000000 AA    0.231839159866  11.634699818792   1.303822208822 Bohr   0.0
[INPUT]  9 C      0.000599000000   1.412484000000   0.626435000000 AA    0.001131945949   2.669207915330   1.183790584842 Bohr   0.0
[INPUT] 10 C     -0.178150000000   1.171531000000  -0.928812000000 AA   -0.336654709091   2.213872736438  -1.755200301210 Bohr   0.0
[INPUT] 11 C     -0.091146000000   0.031924000000   1.234726000000 AA   -0.172240977350   0.060327616801   2.333293978880 Bohr   0.0
[INPUT] 12 C      0.043261000000   0.057389000000  -1.416958000000 AA    0.081751441875   0.108449492563  -2.677662550011 Bohr   0.0
[INPUT] 13 C      0.039431000000  -1.325449000000   0.816342000000 AA    0.074513790818  -2.504735602079   1.542662803980 Bohr   0.0
[INPUT] 14 C      0.033661000000  -1.016045000000  -0.775876000000 AA    0.063610071079  -1.920046780234  -1.466193146623 Bohr   0.0
[INPUT] 15 C      0.068042000000  -2.613826000000   1.380930000000 AA    0.128580744968  -4.939415277267   2.609579497196 Bohr   0.0
[INPUT] 16 C      0.064862000000  -2.530683000000  -1.254299000000 AA    0.122571415892  -4.782297778093  -2.370281588316 Bohr   0.0
[INPUT] 17 C      0.067278000000  -3.531919000000   0.660954000000 AA    0.127136994208  -6.674359604148   1.249022040936 Bohr   0.0
[INPUT] 18 C      0.141807000000  -3.720541000000  -0.712902000000 AA    0.267976392546  -7.030803525215  -1.347189533655 Bohr   0.0
[INPUT] 19 C      0.206645000000  -5.105681000000   1.375001000000 AA    0.390502455011  -9.648338769395   2.598375311003 Bohr   0.0
[INPUT] 20 C      0.015124000000  -4.723721000000  -1.439366000000 AA    0.028580217908  -8.926538978857  -2.720007533011 Bohr   0.0
[INPUT] 21 C     -0.097471000000  -6.022798000000   0.751242000000 AA   -0.184193495087 -11.381438723578   1.419641633271 Bohr   0.0
[INPUT] 22 C     -0.095230000000  -6.092865000000  -0.826107000000 AA   -0.179958618842 -11.513846163948  -1.561115979586 Bohr   0.0
[INPUT] 23 H     -0.064392000000   4.764262000000   2.613842000000 AA   -0.121683244613   9.003150365673   4.939445512885 Bohr   0.0
[INPUT] 24 H      0.096482000000   2.294658000000   2.446344000000 AA    0.182324555950   4.336275169542   4.622920166473 Bohr   0.0
[INPUT] 25 H      0.027160000000   4.884007000000  -2.566046000000 AA    0.051324961543   9.229435620459  -4.849124163036 Bohr   0.0
[INPUT] 26 H     -0.054271000000   2.402144000000  -2.499694000000 AA   -0.102557326506   4.539394271767  -4.723737055219 Bohr   0.0
[INPUT] 27 H      0.115796000000   6.989197000000  -1.252934000000 AA    0.218822726320  13.207668160632  -2.367702112156 Bohr   0.0
[INPUT] 28 H     -0.046741000000   7.095118000000   1.077649000000 AA   -0.088327688788  13.407829841472   2.036461468411 Bohr   0.0
[INPUT] 29 H      0.040366000000   0.129379000000   2.615098000000 AA    0.076280684744   0.244490876270   4.941819008898 Bohr   0.0
[INPUT] 30 H      0.114448000000  -0.116714000000  -2.485309000000 AA    0.216275375504  -0.220557494902  -4.696553344917 Bohr   0.0
[INPUT] 31 H      0.066675000000  -2.516513000000   2.544846000000 AA    0.125997489355  -4.755520358908   4.809061969195 Bohr   0.0
[INPUT] 32 H     -0.053429000000  -2.424155000000  -2.548574000000 AA   -0.100966177109  -4.580989033495  -4.816106868187 Bohr   0.0
[INPUT] 33 H      0.009745000000  -4.948935000000   2.319797000000 AA    0.018415381084  -9.352131758274   4.383780994588 Bohr   0.0
[INPUT] 34 H     -0.050909000000  -5.041282000000  -2.340465000000 AA   -0.096204067275  -9.526642296700  -4.422837854130 Bohr   0.0
[INPUT] 35 H     -0.158733000000  -6.934576000000   1.154167000000 AA   -0.299961896931 -13.104449429982   2.181059532011 Bohr   0.0
[INPUT] 36 H     -0.012985000000  -6.951049000000  -1.231812000000 AA   -0.024538093727 -13.135578888432  -2.327787316953 Bohr   0.0
[INPUT] ---------------- BASIS SET ---------------- 
[INPUT] l, kappa, [nprim/nctr], expnt,             c_1 c_2 ...
[INPUT] H
[INPUT] 0    0    [3    /1   ]  3.42525091        0.15432897
                                0.62391373        0.53532814
                                0.1688554         0.44463454
[INPUT] C
[INPUT] 0    0    [3    /1   ]  71.616837         0.15432897
                                13.045096         0.53532814
                                3.5305122         0.44463454
[INPUT] 0    0    [3    /1   ]  2.9412494         -0.09996723
                                0.6834831         0.39951283
                                0.2222899         0.70011547
[INPUT] 1    0    [3    /1   ]  2.9412494         0.15591627
                                0.6834831         0.60768372
                                0.2222899         0.39195739

nuclear repulsion = 1511.56033377012
number of shells = 80
number of NR pGTOs = 372
number of NR cGTOs = 124
basis = sto3g
ecp = {}
CPU time:     64855.91
atom C rad-grids = 99, ang-grids = [ 50  50  50  50  50  50  50  50  50  50  50  50  50  50  50  50  50  50
  50  50  50  50  50  50  50  50  50  50  50  50  50  86  86  86  86  86
  86  86  86  86  86  86  86 434 434 434 434 434 434 434 434 434 590 590
 590 590 590 590 590 590 590 590 590 590 590 590 590 590 590 590 590 590
 590 590 590 590 590 590 590 434 434 434 434 434 434 434 434 434 434 434
 434 434 434 434 434 434 434 434 434]
atom H rad-grids = 99, ang-grids = [ 50  50  50  50  50  50  50  50  50  50  50  50  50  50  50  50  50  50
  50  50  50  50  50  50  50  50  50  50  86  86  86  86  86  86  86 434
 434 434 434 434 434 434 434 590 590 590 590 590 590 590 590 590 590 590
 590 590 590 590 590 590 590 590 590 590 590 590 590 590 590 434 434 434
 434 434 434 434 434 434 434 434 434 434 434 434 434 434 434 434 434 434
 434 434 434 434 434 434 434 434 434]
tot_boxes 5270, boxes in each direction [ 8 29 15]
Padding 0 grids
tot grids = 1157832


******** <class 'pyscf.dft.rks.RKS'> ********
method = RKS
initial guess = minao
damping factor = 0
level_shift factor = 0
DIIS = <class 'pyscf.scf.diis.CDIIS'>
diis_start_cycle = 1
diis_space = 8
SCF conv_tol = 1e-10
SCF conv_tol_grad = None
SCF max_cycles = 50
direct_scf = True
direct_scf_tol = 1e-13
chkfile to save SCF result = /home/saade/mlelec/tutorials/tmp359jrr5z
max_memory 4000 MB (current use 690 MB)
XC library pyscf.dft.libxc version 6.1.0
    S. Lehtola, C. Steigemann, M. J.T. Oliveira, and M. A.L. Marques.,  SoftwareX 7, 1–5 (2018)
XC functionals = b3lypg
    P. J. Stephens, F. J. Devlin, C. F. Chabalowski, and M. J. Frisch.,  J. Phys. Chem. 98, 11623 (1994)
radial grids: 
    Treutler-Ahlrichs [JCP 102, 346 (1995); DOI:10.1063/1.469408] (M4) radial grids
    
becke partition: Becke, JCP 88, 2547 (1988); DOI:10.1063/1.454033
pruning grids: <function nwchem_prune at 0x7f9db5616ca0>
grids dens level: 3
symmetrized grids: False
atomic radii adjust function: <function treutler_atomic_radii_adjust at 0x7f9db5617380>
User specified grid scheme (99, 590)
small_rho_cutoff = 1e-07
Set gradient conv threshold to 1e-05
Initial guess from minao.
nelec by numeric integration = 145.27557816881944
    CPU time for vxc     37.40 sec, wall time     15.75 sec
E1 = -4122.50288063978  Ecoul = 1895.0824574316357  Exc = -126.37125656876528
init E= -842.231346006786
cond(S) = 24.380853234752674
    CPU time for initialize scf     47.04 sec, wall time     18.09 sec
  HOMO = -0.214234368734052  LUMO = -0.145132851209742
  mo_energy =
[-1.01529984e+01 -1.01446669e+01 -1.01415034e+01 -1.01390280e+01
 -1.01326180e+01 -1.01316944e+01 -1.01307107e+01 -1.01277545e+01
 -1.01269973e+01 -1.01217116e+01 -1.01204485e+01 -1.01105514e+01
 -1.01051185e+01 -1.01049744e+01 -1.01025590e+01 -1.01014889e+01
 -1.00897948e+01 -1.00877646e+01 -1.00779021e+01 -1.00773249e+01
 -1.00753671e+01 -1.00709862e+01 -1.11562449e+00 -1.10261116e+00
 -1.06934794e+00 -1.00626756e+00 -9.90242176e-01 -9.78913662e-01
 -9.39939502e-01 -8.88636625e-01 -8.72769124e-01 -8.45721414e-01
 -8.06400286e-01 -7.75594177e-01 -7.30379469e-01 -7.24399372e-01
 -6.88003018e-01 -6.72549112e-01 -6.66241514e-01 -6.32879360e-01
 -6.17636828e-01 -6.00383655e-01 -5.87156509e-01 -5.68256163e-01
 -5.58551648e-01 -5.52907428e-01 -5.43204324e-01 -5.16434769e-01
 -5.03853592e-01 -4.97769721e-01 -4.91376250e-01 -4.78718054e-01
 -4.72814680e-01 -4.52441936e-01 -4.45229911e-01 -4.38502313e-01
 -4.27101161e-01 -4.10000820e-01 -3.99979436e-01 -3.91295587e-01
 -3.86086424e-01 -3.78487351e-01 -3.77577831e-01 -3.68903805e-01
 -3.42360958e-01 -3.27897177e-01 -3.01732515e-01 -2.95467945e-01
 -2.90733254e-01 -2.81409488e-01 -2.64639854e-01 -2.36759016e-01
 -2.14234369e-01 -1.45132851e-01 -1.03189486e-01 -8.13581208e-02
 -3.63907479e-02 -1.02148178e-03  1.48427915e-02  2.44975227e-02
  5.00426501e-02  5.84974741e-02  6.40063729e-02  9.26784955e-02
  1.09162930e-01  1.19421067e-01  1.46681030e-01  1.57282284e-01
  1.68706972e-01  1.72574627e-01  1.80765034e-01  1.89768339e-01
  1.99126361e-01  2.08046747e-01  2.16744340e-01  2.72573809e-01
  2.80887325e-01  2.84932951e-01  3.10045300e-01  3.17838397e-01
  3.29532479e-01  3.80204428e-01  3.89145067e-01  4.07312117e-01
  4.08997485e-01  4.36593318e-01  4.45932813e-01  4.73895919e-01
  5.16817615e-01  5.29289647e-01  5.43290416e-01  5.69200676e-01
  5.94127464e-01  6.05014522e-01  6.31739991e-01  6.62251097e-01
  6.96146029e-01  7.57677037e-01  7.66470689e-01  7.81605847e-01
  8.18623900e-01  8.25200667e-01  8.52297700e-01  9.15355324e-01]
nelec by numeric integration = 145.99999670866845
    CPU time for vxc     38.47 sec, wall time     15.91 sec
E1 = -4135.821592799115  Ecoul = 1913.8030797788554  Exc = -124.9368770942299
cycle= 1 E= -835.395056344365  delta_E= 6.84  |g|= 0.284  |ddm|= 9.43
    CPU time for cycle= 1     38.90 sec, wall time     15.98 sec
  HOMO = -0.106392275722064  LUMO = -0.00522088021938879
  mo_energy =
[-1.00475268e+01 -1.00461139e+01 -1.00288328e+01 -1.00258734e+01
 -1.00204450e+01 -1.00135543e+01 -1.00069305e+01 -1.00069155e+01
 -1.00045606e+01 -1.00028158e+01 -1.00009617e+01 -9.99966585e+00
 -9.99462097e+00 -9.99312150e+00 -9.99106881e+00 -9.98695500e+00
 -9.97920143e+00 -9.97821826e+00 -9.97647553e+00 -9.95686763e+00
 -9.95242569e+00 -9.94086285e+00 -8.54463598e-01 -8.48713646e-01
 -8.20523535e-01 -7.86579633e-01 -7.74036770e-01 -7.59373994e-01
 -7.32515179e-01 -7.08227352e-01 -6.97757580e-01 -6.81150642e-01
 -6.43693377e-01 -6.27250830e-01 -5.97973072e-01 -5.78434495e-01
 -5.54786690e-01 -5.42284724e-01 -5.30310229e-01 -5.13588711e-01
 -4.94437000e-01 -4.85819201e-01 -4.76620526e-01 -4.62507383e-01
 -4.51030819e-01 -4.39813934e-01 -4.29208504e-01 -4.10426228e-01
 -4.03096109e-01 -3.97432101e-01 -3.70834668e-01 -3.65947756e-01
 -3.56894581e-01 -3.53398026e-01 -3.44769818e-01 -3.31762582e-01
 -3.23231205e-01 -3.21716895e-01 -3.11909306e-01 -2.99315482e-01
 -2.91488647e-01 -2.75378244e-01 -2.65647424e-01 -2.54493794e-01
 -2.33381313e-01 -2.30430595e-01 -2.08714131e-01 -1.98275110e-01
 -1.92676053e-01 -1.78590607e-01 -1.73232379e-01 -1.44506890e-01
 -1.06392276e-01 -5.22088022e-03  2.73265809e-02  6.56407335e-02
  1.02067997e-01  1.60886249e-01  1.63900173e-01  1.80984987e-01
  1.95859872e-01  2.02086356e-01  2.17514742e-01  2.36494085e-01
  2.53132730e-01  2.75275640e-01  2.89611768e-01  2.94579286e-01
  3.07668474e-01  3.18869911e-01  3.28504512e-01  3.32417510e-01
  3.46385441e-01  3.56314713e-01  3.64514100e-01  4.06152362e-01
  4.17640695e-01  4.38634138e-01  4.46884265e-01  4.57308005e-01
  4.68758747e-01  5.23472870e-01  5.26962612e-01  5.29697419e-01
  5.64528633e-01  5.78373825e-01  5.84646297e-01  6.26052826e-01
  6.32493464e-01  6.66221186e-01  6.91018686e-01  7.15958519e-01
  7.35396423e-01  7.53492191e-01  7.84133285e-01  8.25221135e-01
  8.52910958e-01  9.29013805e-01  9.34016157e-01  9.43623125e-01
  9.82667402e-01  1.01295024e+00  1.03033113e+00  1.08802440e+00]
nelec by numeric integration = 145.9999964793415
    CPU time for vxc     39.03 sec, wall time     16.37 sec
E1 = -4131.170010262784  Ecoul = 1909.024907122005  Exc = -124.80271388984119
cycle= 2 E= -835.387483260496  delta_E= 0.00757  |g|= 0.339  |ddm|= 0.915
    CPU time for cycle= 2     39.44 sec, wall time     16.43 sec
  HOMO = -0.119631823940437  LUMO = -0.0149738622098789
  mo_energy =
[-10.05703162 -10.04466772 -10.03535224 -10.03413879 -10.03284413
 -10.03003793 -10.02976646 -10.02758617 -10.02606996 -10.02396666
 -10.02385108 -10.02305183 -10.02211925 -10.01408776 -10.01205244
 -10.01116089 -10.00630784  -9.99803775  -9.99375739  -9.99328235
  -9.99016769  -9.95952217  -0.87573806  -0.86910632  -0.84822279
  -0.80178464  -0.78958479  -0.77572174  -0.75379958  -0.71779471
  -0.70263334  -0.68694808  -0.65538785  -0.63526402  -0.600647
  -0.5935156   -0.56777185  -0.55369271  -0.54624682  -0.52270152
  -0.50866505  -0.49566966  -0.48755583  -0.4720037   -0.4634095
  -0.45390864  -0.44674089  -0.42554839  -0.41532738  -0.40742171
  -0.39025255  -0.38285007  -0.37669462  -0.35651974  -0.35155099
  -0.34529975  -0.33885558  -0.32874782  -0.31560555  -0.30474698
  -0.29921281  -0.28538224  -0.28083898  -0.26944931  -0.24827175
  -0.24611782  -0.21893881  -0.20909371  -0.19868928  -0.18848506
  -0.1840729   -0.14382304  -0.11963182  -0.01497386   0.02825402
   0.04745152   0.09850567   0.13970529   0.15134052   0.16600526
   0.18679114   0.19043514   0.21011675   0.2227252    0.2489989
   0.25501306   0.28082314   0.28428456   0.29824713   0.30998421
   0.31447593   0.3233034    0.33822425   0.34568445   0.35374414
   0.40121352   0.41969651   0.42319269   0.4384153    0.45228562
   0.4570576    0.50935376   0.52535717   0.53691699   0.54391767
   0.57170227   0.58259355   0.60763578   0.64680173   0.66130972
   0.67308675   0.69757053   0.73042892   0.74097994   0.76222559
   0.80176418   0.83266872   0.89798464   0.90461454   0.91726505
   0.95514487   0.9674574    1.00896637   1.06779383]
nelec by numeric integration = 145.9999965651066
    CPU time for vxc     38.39 sec, wall time     15.95 sec
E1 = -4133.632357682043  Ecoul = 1911.498832393009  Exc = -124.84318263682975
cycle= 3 E= -835.41637415574  delta_E= -0.0289  |g|= 0.176  |ddm|= 0.69
    CPU time for cycle= 3     38.90 sec, wall time     16.02 sec
  HOMO = -0.121806821369696  LUMO = -0.0175789604348239
  mo_energy =
[-10.04958843 -10.04124762 -10.04022649 -10.0368544  -10.03393673
 -10.03241266 -10.03005697 -10.0251818  -10.02300602 -10.02293455
 -10.02139411 -10.02053476 -10.01978673 -10.01671735 -10.01561236
 -10.01449012 -10.01376427 -10.01284231 -10.01205893 -10.00764582
 -10.00302879  -9.99827474  -0.87556807  -0.86750548  -0.84766491
  -0.80427836  -0.7944454   -0.7823933   -0.75478465  -0.71919525
  -0.7054978   -0.69043637  -0.65708162  -0.63712754  -0.60530426
  -0.5958796   -0.56702796  -0.55509392  -0.54740308  -0.52575932
  -0.50898117  -0.49835581  -0.49024208  -0.47420922  -0.46444503
  -0.45575663  -0.45135884  -0.42467299  -0.41708961  -0.41224497
  -0.38958962  -0.38269006  -0.37639933  -0.36141949  -0.35590401
  -0.34660613  -0.33907495  -0.32954739  -0.31896784  -0.30763029
  -0.29983818  -0.29010245  -0.282861    -0.27838587  -0.2504302
  -0.24493336  -0.22062423  -0.21472287  -0.20236348  -0.18838627
  -0.1827029   -0.1493824   -0.12180682  -0.01757896   0.02222627
   0.04867086   0.09422338   0.13579013   0.14928727   0.16002466
   0.18527101   0.18884526   0.19989236   0.22610265   0.24670906
   0.25521702   0.28384174   0.28553037   0.30454885   0.31038517
   0.31501145   0.32413817   0.33822211   0.34152714   0.35199793
   0.39915945   0.41253202   0.42178788   0.43694259   0.44646972
   0.45604212   0.5112986    0.51855927   0.52619269   0.54438857
   0.56959229   0.578499     0.60583981   0.63663235   0.65582076
   0.67101513   0.69665891   0.71812937   0.74015806   0.77389267
   0.80117763   0.83053552   0.89944806   0.90373149   0.91958511
   0.95316765   0.96925519   0.99763927   1.05952534]
nelec by numeric integration = 145.9999965776776
    CPU time for vxc     38.22 sec, wall time     15.81 sec
E1 = -4133.075132523331  Ecoul = 1910.9395567336915  Exc = -124.84974337542548
cycle= 4 E= -835.424985394941  delta_E= -0.00861  |g|= 0.0855  |ddm|= 0.356
    CPU time for cycle= 4     38.68 sec, wall time     15.88 sec
  HOMO = -0.123116334305116  LUMO = -0.019651403032391
  mo_energy =
[-10.05322445 -10.03990537 -10.0374911  -10.03712475 -10.03695943
 -10.0324126  -10.03000567 -10.02827868 -10.02639504 -10.02381417
 -10.02350061 -10.02273943 -10.02185645 -10.02148012 -10.0184472
 -10.01752994 -10.01583641 -10.01300627 -10.01235161 -10.0070318
 -10.00700858 -10.00513635  -0.87647445  -0.86998593  -0.84730514
  -0.80441593  -0.79459924  -0.78419599  -0.75470627  -0.72119659
  -0.70742585  -0.69202906  -0.65770299  -0.63910543  -0.60555812
  -0.59711259  -0.56982444  -0.55509365  -0.54784032  -0.52608717
  -0.51099349  -0.49794887  -0.49042011  -0.47425407  -0.46483705
  -0.45740125  -0.45088054  -0.42706175  -0.41676227  -0.41301977
  -0.3915464   -0.38342064  -0.37786186  -0.36262689  -0.35819099
  -0.34661628  -0.34255774  -0.33030265  -0.319761    -0.30865377
  -0.30203983  -0.29132202  -0.28464252  -0.27797918  -0.25103182
  -0.24723325  -0.22184616  -0.21516611  -0.20502408  -0.19118517
  -0.18765034  -0.1514167   -0.12311633  -0.0196514    0.0200733
   0.04611905   0.0918427    0.13612173   0.14827287   0.15923584
   0.18222677   0.18949765   0.20022846   0.22220742   0.24512545
   0.25189085   0.28070473   0.28384076   0.29839516   0.30804852
   0.31068311   0.32200132   0.33650591   0.33915327   0.34918622
   0.39933875   0.4111832    0.42278644   0.43744131   0.44529592
   0.45760233   0.51007559   0.51865434   0.52789958   0.54470468
   0.56746739   0.57475253   0.60715613   0.63837813   0.65462465
   0.66967245   0.69830317   0.72039976   0.73587386   0.76493807
   0.80016515   0.83066362   0.90012695   0.90551891   0.91666822
   0.95510914   0.97057928   0.99825012   1.05806789]
nelec by numeric integration = 145.99999656787207
    CPU time for vxc     38.33 sec, wall time     15.83 sec
E1 = -4133.445430890701  Ecoul = 1911.3075432439518  Exc = -124.84991846208335
cycle= 5 E= -835.427472338708  delta_E= -0.00249  |g|= 0.0189  |ddm|= 0.14
    CPU time for cycle= 5     38.80 sec, wall time     15.90 sec
  HOMO = -0.122507364330184  LUMO = -0.0185296952761916
  mo_energy =
[-10.05232536 -10.03741781 -10.03723771 -10.03709032 -10.03278912
 -10.02916216 -10.0282136  -10.02818593 -10.02558236 -10.02307299
 -10.02197122 -10.02190376 -10.02024889 -10.01785043 -10.01769932
 -10.01723059 -10.01646618 -10.0137759  -10.00747637 -10.00527173
 -10.00522377 -10.00350046  -0.87538336  -0.86909745  -0.84679711
  -0.80349586  -0.79306567  -0.7820167   -0.75427823  -0.72020022
  -0.70608288  -0.69090818  -0.65717226  -0.63802916  -0.60469812
  -0.59606829  -0.56863404  -0.55484828  -0.54710071  -0.52497675
  -0.5098735   -0.49729214  -0.48974123  -0.47344009  -0.46455718
  -0.45606633  -0.44982631  -0.42577789  -0.41671571  -0.41159448
  -0.39035869  -0.38296582  -0.3772153   -0.36140575  -0.35690051
  -0.34615297  -0.34130661  -0.32992253  -0.31922092  -0.30835135
  -0.30163386  -0.28944976  -0.28342295  -0.27679612  -0.25045595
  -0.24684402  -0.22122766  -0.21438361  -0.20361563  -0.19005434
  -0.18630628  -0.15057696  -0.12250736  -0.0185297    0.02117966
   0.04711502   0.09325549   0.13728651   0.14883422   0.16077446
   0.18394215   0.18851226   0.20247807   0.22349054   0.24619684
   0.25303939   0.2822279    0.28383798   0.29997134   0.30899948
   0.31212752   0.32275639   0.33756091   0.34020215   0.35078457
   0.39969699   0.4124742    0.42236539   0.43782245   0.44670179
   0.45718338   0.51077822   0.519719     0.52906966   0.54481291
   0.56862212   0.57695452   0.60678168   0.63931467   0.65594022
   0.67065123   0.69790461   0.72239811   0.7383164    0.76671955
   0.80113935   0.83086298   0.90024609   0.90477591   0.91796461
   0.95466041   0.97112659   1.00090031   1.06099473]
nelec by numeric integration = 145.9999965667288
    CPU time for vxc     38.52 sec, wall time     15.90 sec
E1 = -4133.319035456666  Ecoul = 1911.178664536787  Exc = -124.84755610205019
cycle= 6 E= -835.427593251804  delta_E= -0.000121  |g|= 0.00608  |ddm|= 0.034
    CPU time for cycle= 6     39.06 sec, wall time     15.98 sec
  HOMO = -0.122344128611132  LUMO = -0.0183471440449457
  mo_energy =
[-10.05214588 -10.03806146 -10.03707063 -10.03652779 -10.03354814
 -10.02941097 -10.02859327 -10.02768007 -10.02478759 -10.02266266
 -10.02189191 -10.02102223 -10.02011982 -10.01805728 -10.01701875
 -10.01585426 -10.01553659 -10.0134524  -10.00883982 -10.00544489
 -10.00420509 -10.00402991  -0.87525311  -0.86883416  -0.84677382
  -0.80327478  -0.79298998  -0.78196442  -0.75416465  -0.72010411
  -0.70616958  -0.69065347  -0.6569766   -0.63792671  -0.60449772
  -0.59606152  -0.5684826   -0.55464119  -0.54701222  -0.52497729
  -0.50989791  -0.49717356  -0.48968959  -0.47333753  -0.46422023
  -0.45611831  -0.4497766   -0.42588516  -0.4164439   -0.41157502
  -0.39035444  -0.3829726   -0.37702419  -0.36112803  -0.35695527
  -0.34605777  -0.34127535  -0.32989023  -0.31907116  -0.30819059
  -0.30152143  -0.28953127  -0.28324402  -0.27660495  -0.25034958
  -0.24674727  -0.22102602  -0.21427831  -0.20365725  -0.19012537
  -0.18646597  -0.15025747  -0.12234413  -0.01834714   0.02148488
   0.04712807   0.09327661   0.13734674   0.14915946   0.16085596
   0.18390819   0.1890096    0.20233667   0.22340809   0.2461759
   0.25303155   0.28217449   0.28385344   0.2999133    0.30920777
   0.31219185   0.32277426   0.33758127   0.34008957   0.35081059
   0.39986847   0.41278471   0.42265281   0.43791714   0.44671614
   0.4575694    0.51080752   0.51997506   0.52917377   0.54486827
   0.56875304   0.57660879   0.60724437   0.63947629   0.65584722
   0.67068831   0.6983289    0.72231672   0.73814723   0.76703399
   0.80115218   0.83130062   0.90050129   0.90531707   0.91815326
   0.95515589   0.97080987   1.00088274   1.06082343]
nelec by numeric integration = 145.9999965659803
    CPU time for vxc     38.22 sec, wall time     15.80 sec
E1 = -4133.318587594421  Ecoul = 1911.177789087158  Exc = -124.84714060130094
cycle= 7 E= -835.427605338439  delta_E= -1.21e-05  |g|= 0.00208  |ddm|= 0.0116
    CPU time for cycle= 7     38.70 sec, wall time     15.88 sec
  HOMO = -0.122341156845647  LUMO = -0.0183143469897251
  mo_energy =
[-10.05219074 -10.0376471  -10.03718199 -10.03687408 -10.03365883
 -10.02929038 -10.02843072 -10.02778847 -10.02459193 -10.02253181
 -10.02236035 -10.02076447 -10.01997285 -10.0177272  -10.01713155
 -10.01604273 -10.01570092 -10.01375529 -10.00867169 -10.00519964
 -10.00418936 -10.00399368  -0.87523226  -0.86888285  -0.84669859
  -0.803305    -0.79302965  -0.78203478  -0.75411702  -0.72005794
  -0.70608908  -0.69064866  -0.65699731  -0.63788726  -0.60448748
  -0.59603713  -0.5684922   -0.55464692  -0.54700121  -0.5249508
  -0.50984899  -0.49721466  -0.48966522  -0.47338121  -0.46429537
  -0.45610299  -0.44981503  -0.425827    -0.41648872  -0.41160105
  -0.39030824  -0.38289452  -0.37703127  -0.36114378  -0.35690801
  -0.3460225   -0.3412599   -0.32983065  -0.31903761  -0.30815445
  -0.30147923  -0.2895151   -0.28330003  -0.2766976   -0.25030311
  -0.24667453  -0.22103172  -0.21428904  -0.20361544  -0.1900338
  -0.18634754  -0.1502629   -0.12234116  -0.01831435   0.02150309
   0.04721384   0.09331838   0.13735459   0.14910044   0.16081378
   0.18394007   0.18893428   0.20229008   0.22352424   0.24623109
   0.25309757   0.28226123   0.28394545   0.29997937   0.30918395
   0.31225933   0.32286672   0.33764513   0.34018124   0.35080978
   0.39983346   0.41280086   0.42269611   0.43787962   0.44668265
   0.45748224   0.51085917   0.51996753   0.52911663   0.54497909
   0.56875074   0.57671631   0.60717796   0.63949183   0.65593783
   0.67076312   0.69823265   0.72222087   0.73814963   0.76703591
   0.80121415   0.83120083   0.90051907   0.90523027   0.91818866
   0.95507669   0.97105122   1.00078907   1.06073697]
nelec by numeric integration = 145.9999965662044
    CPU time for vxc     38.26 sec, wall time     15.84 sec
E1 = -4133.316836317578  Ecoul = 1911.1761145717242  Exc = -124.84721883720863
cycle= 8 E= -835.427606812938  delta_E= -1.47e-06  |g|= 0.000724  |ddm|= 0.00412
    CPU time for cycle= 8     38.76 sec, wall time     15.92 sec
  HOMO = -0.122352334675083  LUMO = -0.0183201612391566
  mo_energy =
[-10.05220577 -10.03769991 -10.03717557 -10.03683604 -10.03359806
 -10.02928612 -10.02849768 -10.02777882 -10.024715   -10.02243891
 -10.02224183 -10.02084655 -10.0200509  -10.01787845 -10.01716274
 -10.01600133 -10.01568745 -10.01384204 -10.00854293 -10.00531335
 -10.00419506 -10.00406077  -0.87524881  -0.86889147  -0.8467236
  -0.80331679  -0.79303408  -0.78205369  -0.75413297  -0.72006721
  -0.70609049  -0.69067071  -0.65698939  -0.63791074  -0.60452571
  -0.59603988  -0.56849768  -0.55464982  -0.54701733  -0.52496703
  -0.50985394  -0.49722176  -0.48967895  -0.47339574  -0.46428331
  -0.45610537  -0.44983517  -0.42583209  -0.41649042  -0.41162045
  -0.39032152  -0.38290773  -0.37704299  -0.36117347  -0.35689546
  -0.34603917  -0.34125217  -0.32985268  -0.31906246  -0.30816246
  -0.30147011  -0.28951453  -0.28330392  -0.27671041  -0.25032857
  -0.24666864  -0.22101897  -0.21429392  -0.20360569  -0.19004711
  -0.18632769  -0.15028858  -0.12235233  -0.01832016   0.02149447
   0.04719075   0.09332181   0.13732887   0.14910014   0.1608044
   0.18395947   0.18897948   0.2022937    0.22352096   0.2462548
   0.25310572   0.28225628   0.28392286   0.29998576   0.30917817
   0.31225173   0.32284663   0.33762556   0.34019336   0.35080685
   0.39983506   0.41276604   0.42266407   0.43787852   0.44668297
   0.45748343   0.51084099   0.51993138   0.52907874   0.54493376
   0.56875391   0.57673574   0.60716703   0.63946009   0.6559167
   0.67072887   0.69823145   0.7221981    0.73815934   0.76702117
   0.80119931   0.83120913   0.90050976   0.90523214   0.91816067
   0.95507004   0.9709889    1.00076669   1.06074155]
nelec by numeric integration = 145.99999656622234
    CPU time for vxc     38.08 sec, wall time     15.81 sec
E1 = -4133.318615999381  Ecoul = 1911.1779424336453  Exc = -124.84726719638473
cycle= 9 E= -835.427606991996  delta_E= -1.79e-07  |g|= 0.000234  |ddm|= 0.00142
    CPU time for cycle= 9     38.73 sec, wall time     15.91 sec
  HOMO = -0.122356283012503  LUMO = -0.0183234130780238
  mo_energy =
[-10.05220247 -10.0377124  -10.03716102 -10.03681    -10.03360189
 -10.02930873 -10.02849591 -10.02778312 -10.02470415 -10.02247122
 -10.02226519 -10.0209203  -10.0200417  -10.01783914 -10.01715886
 -10.01601811 -10.01570152 -10.01381168 -10.00859964 -10.00527717
 -10.00421085 -10.00407864  -0.87525005  -0.86889355  -0.84672746
  -0.80332132  -0.79304021  -0.78205629  -0.75412914  -0.72007207
  -0.70609807  -0.69068116  -0.6569919   -0.63791509  -0.6045307
  -0.59604253  -0.5685057   -0.55465166  -0.54701647  -0.5249741
  -0.50986311  -0.4972212   -0.48968622  -0.47339662  -0.4642883
  -0.45610712  -0.4498331   -0.42583911  -0.41648933  -0.4116234
  -0.39032398  -0.38290439  -0.37704296  -0.36117828  -0.35690481
  -0.34604136  -0.34125636  -0.329845    -0.31906334  -0.3081641
  -0.30147066  -0.28952467  -0.28330696  -0.27671036  -0.25032347
  -0.24667177  -0.22102383  -0.21429465  -0.20361739  -0.19004879
  -0.18633484  -0.15030222  -0.12235628  -0.01832341   0.02148432
   0.04719051   0.09331071   0.13733192   0.14909975   0.16080352
   0.18394711   0.18897353   0.20229091   0.22351713   0.24624707
   0.25309831   0.28225016   0.28393666   0.29998351   0.30917654
   0.31224049   0.32285015   0.33762429   0.34019177   0.3508028
   0.39983283   0.41275443   0.42267249   0.4378796    0.44667738
   0.45748299   0.51083746   0.51991832   0.52907337   0.54494313
   0.5687497    0.57672416   0.60717247   0.63944497   0.65591014
   0.67072608   0.69823088   0.72219857   0.73815104   0.76701571
   0.8011964    0.83120581   0.90050563   0.90522762   0.91814576
   0.95507216   0.970992     1.00076559   1.06074199]
nelec by numeric integration = 145.9999965662311
    CPU time for vxc     38.91 sec, wall time     16.05 sec
E1 = -4133.318925865449  Ecoul = 1911.1782644902025  Exc = -124.84727940432653
cycle= 10 E= -835.427607009449  delta_E= -1.75e-08  |g|= 8.77e-05  |ddm|= 0.000467
    CPU time for cycle= 10     39.26 sec, wall time     16.11 sec
  HOMO = -0.122358020414739  LUMO = -0.0183232317634553
  mo_energy =
[-10.05219825 -10.0377133  -10.0371708  -10.03681698 -10.03360852
 -10.02930103 -10.02849743 -10.02778244 -10.02470513 -10.02247794
 -10.0222654  -10.02090388 -10.020034   -10.01785086 -10.01716686
 -10.01601353 -10.01569696 -10.01380249 -10.00858445 -10.00529474
 -10.00420964 -10.00407489  -0.87525129  -0.86889474  -0.84672716
  -0.80332015  -0.79303969  -0.78205426  -0.75413215  -0.72007084
  -0.7060988   -0.69067828  -0.65699313  -0.6379141   -0.60452762
  -0.59604358  -0.56850468  -0.55465281  -0.54701754  -0.52497218
  -0.50986232  -0.49722107  -0.48968465  -0.47339499  -0.46428897
  -0.45610863  -0.44983274  -0.42583943  -0.41648976  -0.41162169
  -0.39032527  -0.38290709  -0.37704448  -0.36117521  -0.35690512
  -0.34604139  -0.34125773  -0.32984797  -0.3190626   -0.30816455
  -0.30147274  -0.28952397  -0.28330631  -0.27670879  -0.25032633
  -0.24667366  -0.2210252   -0.21429606  -0.20361515  -0.19005103
  -0.18633741  -0.15030008  -0.12235802  -0.01832323   0.02148668
   0.04718874   0.09331308   0.13733133   0.14909816   0.16080384
   0.18394704   0.18897052   0.20229137   0.22351552   0.24624609
   0.25309729   0.28225013   0.28393143   0.29998045   0.30917482
   0.31224128   0.32284789   0.33762341   0.34018989   0.35080254
   0.39983322   0.41275877   0.4226693    0.43788018   0.44667831
   0.45748223   0.5108372    0.5199242    0.52907913   0.5449391
   0.56874809   0.57672492   0.60717064   0.63945103   0.65591135
   0.67072631   0.69823142   0.72220262   0.73815013   0.76701527
   0.80119464   0.83120589   0.90050534   0.90522851   0.91814861
   0.95507071   0.97098956   1.00076782   1.0607398 ]
nelec by numeric integration = 145.9999965662152
    CPU time for vxc     38.06 sec, wall time     15.80 sec
E1 = -4133.318843562847  Ecoul = 1911.178177960948  Exc = -124.8472751801178
cycle= 11 E= -835.427607011893  delta_E= -2.44e-09  |g|= 3.73e-05  |ddm|= 0.00015
    CPU time for cycle= 11     38.39 sec, wall time     15.85 sec
  HOMO = -0.122358442982465  LUMO = -0.0183230746806894
  mo_energy =
[-10.05220045 -10.03771643 -10.0371691  -10.03682017 -10.0336051
 -10.02930546 -10.02850087 -10.02778408 -10.02470523 -10.02247101
 -10.02226266 -10.02090067 -10.02004147 -10.01785398 -10.01716794
 -10.01601665 -10.0156994  -10.01380521 -10.00859128 -10.00528871
 -10.00420341 -10.00406773  -0.87525236  -0.86889467  -0.84672927
  -0.80332055  -0.79303888  -0.78205331  -0.75413368  -0.7200727
  -0.70609843  -0.69067707  -0.65699352  -0.63791462  -0.60452662
  -0.59604402  -0.56850482  -0.5546535   -0.54701808  -0.52497197
  -0.50986257  -0.49722122  -0.4896845   -0.47339505  -0.46428945
  -0.45610858  -0.44983268  -0.42583996  -0.41649035  -0.41162082
  -0.39032623  -0.38290869  -0.37704499  -0.36117429  -0.3569055
  -0.34604282  -0.34125827  -0.3298475   -0.31906199  -0.30816491
  -0.30147434  -0.28952277  -0.28330659  -0.27670862  -0.25032709
  -0.24667584  -0.2210257   -0.21429565  -0.20361686  -0.1900517
  -0.18633917  -0.15029918  -0.12235844  -0.01832307   0.02148789
   0.04718786   0.09331193   0.13733118   0.14909821   0.16080399
   0.18394696   0.18896937   0.20229266   0.2235133    0.24624441
   0.25309559   0.28224845   0.28393055   0.29997998   0.30917479
   0.31224142   0.32284695   0.33762217   0.34018836   0.35080248
   0.39983323   0.41276048   0.42266896   0.43788033   0.44667913
   0.45748199   0.51083573   0.51992576   0.52908132   0.54493838
   0.56874804   0.57672354   0.60716959   0.63945403   0.65591151
   0.67072586   0.69823036   0.72220433   0.73815109   0.76701451
   0.80119341   0.83120486   0.90050293   0.90522681   0.91814928
   0.95506929   0.9709868    1.00076911   1.0607417 ]
nelec by numeric integration = 145.9999965662131
    CPU time for vxc     38.44 sec, wall time     15.97 sec
E1 = -4133.319001783579  Ecoul = 1911.1783368181345  Exc = -124.84727581694871
cycle= 12 E= -835.427607012268  delta_E= -3.76e-10  |g|= 1.77e-05  |ddm|= 7.42e-05
    CPU time for cycle= 12     38.87 sec, wall time     16.04 sec
  HOMO = -0.122357381424979  LUMO = -0.018322087287658
  mo_energy =
[-10.05220189 -10.03771233 -10.03716818 -10.03681645 -10.03360421
 -10.02930467 -10.02849694 -10.02778263 -10.0247048  -10.02247369
 -10.02226006 -10.02090128 -10.02003822 -10.01784959 -10.01716674
 -10.01601459 -10.01569839 -10.01380497 -10.00858729 -10.00529014
 -10.00420313 -10.00406876  -0.8752509   -0.86889404  -0.84672738
  -0.80331966  -0.79303838  -0.78205326  -0.75413153  -0.72007105
  -0.70609777  -0.69067709  -0.65699235  -0.63791397  -0.60452689
  -0.59604311  -0.56850437  -0.55465215  -0.54701701  -0.52497145
  -0.50986195  -0.49722059  -0.48968399  -0.47339487  -0.46428822
  -0.45610786  -0.44983202  -0.425839    -0.41648959  -0.41162093
  -0.39032493  -0.38290701  -0.37704399  -0.3611745   -0.3569044
  -0.34604136  -0.34125737  -0.32984756  -0.31906203  -0.30816442
  -0.30147286  -0.28952265  -0.28330584  -0.27670798  -0.25032563
  -0.24667395  -0.22102451  -0.21429492  -0.20361531  -0.1900507
  -0.18633765  -0.15029915  -0.12235738  -0.01832209   0.02148819
   0.04718898   0.09331315   0.13733205   0.1490991    0.1608047
   0.18394787   0.18897141   0.20229314   0.22351503   0.24624635
   0.25309722   0.28225011   0.28393103   0.2999801    0.30917544
   0.31224148   0.32284774   0.33762365   0.34018983   0.35080296
   0.39983371   0.41275995   0.4226695    0.43788024   0.44667922
   0.45748289   0.51083713   0.51992515   0.52908034   0.54493947
   0.56874928   0.57672507   0.60717129   0.63945306   0.65591227
   0.67072687   0.69823151   0.72220392   0.73815125   0.76701467
   0.80119541   0.8312063    0.90050513   0.90522828   0.91814921
   0.95507125   0.97098983   1.00076939   1.06074209]
nelec by numeric integration = 145.99999656621068
    CPU time for vxc     37.51 sec, wall time     15.65 sec
E1 = -4133.318885146124  Ecoul = 1911.1782184612975  Exc = -124.84727409766832
cycle= 13 E= -835.42760701237  delta_E= -1.02e-10  |g|= 8.15e-06  |ddm|= 3.55e-05
    CPU time for cycle= 13     38.05 sec, wall time     15.73 sec
  HOMO = -0.12235778741884  LUMO = -0.0183224242493897
  mo_energy =
[-10.05220036 -10.03771364 -10.03716797 -10.03681772 -10.03360434
 -10.02930409 -10.0284979  -10.02778246 -10.02470521 -10.0224726
 -10.02226216 -10.0209009  -10.02003999 -10.01785116 -10.01716711
 -10.01601452 -10.01569791 -10.01380447 -10.00858855 -10.0052902
 -10.00420423 -10.00406964  -0.87525126  -0.86889405  -0.84672778
  -0.80331987  -0.79303849  -0.78205319  -0.75413226  -0.72007161
  -0.70609797  -0.69067718  -0.65699268  -0.63791419  -0.6045269
  -0.59604334  -0.5685044   -0.55465265  -0.54701734  -0.52497164
  -0.50986204  -0.49722077  -0.48968417  -0.47339488  -0.4642886
  -0.45610802  -0.44983222  -0.42583923  -0.41648979  -0.41162089
  -0.39032522  -0.38290754  -0.37704419  -0.3611745   -0.35690469
  -0.34604169  -0.34125763  -0.32984761  -0.31906213  -0.30816452
  -0.3014733   -0.28952262  -0.28330599  -0.27670817  -0.25032616
  -0.24667443  -0.22102481  -0.21429513  -0.20361579  -0.19005093
  -0.18633794  -0.15029937  -0.12235779  -0.01832242   0.02148793
   0.04718871   0.09331274   0.13733187   0.14909879   0.16080452
   0.18394765   0.18897096   0.20229294   0.22351462   0.24624581
   0.25309689   0.28224954   0.28393088   0.29998031   0.30917539
   0.31224153   0.3228475    0.3376232    0.34018932   0.35080284
   0.3998335    0.41275996   0.42266943   0.43788034   0.44667923
   0.4574826    0.51083671   0.51992521   0.52908042   0.5449391
   0.56874872   0.57672453   0.60717064   0.63945301   0.65591188
   0.6707265    0.69823127   0.72220389   0.73815138   0.76701497
   0.80119472   0.83120591   0.90050471   0.90522818   0.91814949
   0.95507068   0.97098892   1.00076936   1.06074212]
nelec by numeric integration = 145.9999965662107
    CPU time for vxc     37.86 sec, wall time     15.75 sec
E1 = -4133.318906428534  Ecoul = 1911.1782403093955  Exc = -124.84727466337222
cycle= 14 E= -835.427607012386  delta_E= -1.64e-11  |g|= 3.34e-06  |ddm|= 1.49e-05
    CPU time for cycle= 14     38.17 sec, wall time     15.80 sec
  HOMO = -0.122357822789523  LUMO = -0.0183223886386369
  mo_energy =
[-10.0522014  -10.03771407 -10.03716906 -10.03681729 -10.033605
 -10.02930472 -10.02849885 -10.02778329 -10.02470512 -10.02247312
 -10.02226032 -10.02090191 -10.02003823 -10.0178518  -10.01716738
 -10.01601513 -10.01569868 -10.01380506 -10.00858734 -10.00529039
 -10.00420374 -10.00406884  -0.87525148  -0.86889443  -0.84672814
  -0.80332005  -0.79303875  -0.78205358  -0.75413223  -0.72007139
  -0.70609802  -0.69067725  -0.65699268  -0.63791427  -0.60452703
  -0.5960435   -0.56850464  -0.55465253  -0.54701747  -0.52497177
  -0.50986226  -0.49722089  -0.48968427  -0.47339507  -0.46428853
  -0.45610824  -0.44983244  -0.42583941  -0.41648983  -0.41162113
  -0.39032547  -0.38290753  -0.37704443  -0.36117458  -0.35690469
  -0.34604193  -0.34125764  -0.32984765  -0.31906211  -0.30816459
  -0.30147312  -0.28952287  -0.28330618  -0.27670833  -0.25032618
  -0.2466744   -0.22102483  -0.21429529  -0.2036156   -0.19005109
  -0.18633793  -0.1502993   -0.12235782  -0.01832239   0.0214881
   0.04718849   0.0933129    0.13733156   0.14909878   0.16080431
   0.18394761   0.188971     0.20229282   0.22351458   0.24624597
   0.25309676   0.28224968   0.28393082   0.29998      0.30917507
   0.31224137   0.32284746   0.3376231    0.34018962   0.35080273
   0.39983357   0.4127599    0.42266914   0.43788015   0.44667903
   0.45748258   0.51083666   0.51992512   0.52908038   0.54493891
   0.56874898   0.57672485   0.60717082   0.63945317   0.65591198
   0.67072641   0.69823112   0.7222038    0.738151     0.76701446
   0.8011947    0.83120588   0.90050432   0.90522774   0.91814886
   0.95507062   0.97098852   1.00076895   1.06074157]
nelec by numeric integration = 145.99999656621134
    CPU time for vxc     38.67 sec, wall time     15.90 sec
E1 = -4133.318935182955  Ecoul = 1911.17826965115  Exc = -124.8472752506922
Extra cycle  E= -835.427607012373  delta_E= 1.36e-11  |g|= 7.42e-06  |ddm|= 1.59e-05
    CPU time for scf_cycle    628.94 sec, wall time    257.53 sec
    CPU time for SCF    628.94 sec, wall time    257.53 sec
converged SCF energy = -835.427607012373
nelec by numeric integration = 145.99999656621134
    CPU time for vxc     37.68 sec, wall time     15.66 sec
 ** Mulliken pop  **
pop of  0 C 1s            1.99026
pop of  0 C 2s            1.04829
pop of  0 C 2px           1.01996
pop of  0 C 2py           0.99098
pop of  0 C 2pz           0.97732
pop of  1 C 1s            1.99049
pop of  1 C 2s            1.10592
pop of  1 C 2px           1.01397
pop of  1 C 2py           0.96410
pop of  1 C 2pz           0.93679
pop of  2 C 1s            1.99155
pop of  2 C 2s            1.10815
pop of  2 C 2px           0.98574
pop of  2 C 2py           0.96608
pop of  2 C 2pz           0.93530
pop of  3 C 1s            1.99088
pop of  3 C 2s            1.12600
pop of  3 C 2px           1.03318
pop of  3 C 2py           0.94049
pop of  3 C 2pz           1.00178
pop of  4 C 1s            1.99131
pop of  4 C 2s            1.21320
pop of  4 C 2px           0.98172
pop of  4 C 2py           0.91073
pop of  4 C 2pz           0.94030
pop of  5 C 1s            1.99095
pop of  5 C 2s            1.08980
pop of  5 C 2px           0.98240
pop of  5 C 2py           0.98423
pop of  5 C 2pz           0.98797
pop of  6 C 1s            1.99103
pop of  6 C 2s            1.11327
pop of  6 C 2px           0.99834
pop of  6 C 2py           0.97469
pop of  6 C 2pz           0.98517
pop of  7 C 1s            1.99035
pop of  7 C 2s            1.08314
pop of  7 C 2px           1.01991
pop of  7 C 2py           1.02178
pop of  7 C 2pz           1.02477
pop of  8 C 1s            1.99151
pop of  8 C 2s            1.22673
pop of  8 C 2px           0.95347
pop of  8 C 2py           0.90215
pop of  8 C 2pz           0.89843
pop of  9 C 1s            1.99076
pop of  9 C 2s            1.03676
pop of  9 C 2px           1.00991
pop of  9 C 2py           1.01689
pop of  9 C 2pz           0.95865
pop of  10 C 1s           1.99191
pop of  10 C 2s           1.24766
pop of  10 C 2px          0.93200
pop of  10 C 2py          0.93005
pop of  10 C 2pz          0.91731
pop of  11 C 1s           1.99040
pop of  11 C 2s           1.04307
pop of  11 C 2px          1.06207
pop of  11 C 2py          1.00555
pop of  11 C 2pz          1.04018
pop of  12 C 1s           1.99109
pop of  12 C 2s           1.15664
pop of  12 C 2px          0.99056
pop of  12 C 2py          0.93092
pop of  12 C 2pz          0.92489
pop of  13 C 1s           1.99141
pop of  13 C 2s           1.13744
pop of  13 C 2px          0.96710
pop of  13 C 2py          0.93354
pop of  13 C 2pz          0.94199
pop of  14 C 1s           1.99085
pop of  14 C 2s           1.07703
pop of  14 C 2px          1.04875
pop of  14 C 2py          0.96836
pop of  14 C 2pz          1.02098
pop of  15 C 1s           1.99183
pop of  15 C 2s           1.20688
pop of  15 C 2px          0.91799
pop of  15 C 2py          0.93029
pop of  15 C 2pz          0.93978
pop of  16 C 1s           1.99137
pop of  16 C 2s           1.06525
pop of  16 C 2px          0.97867
pop of  16 C 2py          0.97590
pop of  16 C 2pz          0.96694
pop of  17 C 1s           1.99003
pop of  17 C 2s           1.02320
pop of  17 C 2px          1.04365
pop of  17 C 2py          1.00264
pop of  17 C 2pz          0.99166
pop of  18 C 1s           1.99171
pop of  18 C 2s           1.11942
pop of  18 C 2px          1.00024
pop of  18 C 2py          0.96983
pop of  18 C 2pz          1.02955
pop of  19 C 1s           1.99089
pop of  19 C 2s           1.07059
pop of  19 C 2px          1.01298
pop of  19 C 2py          0.97153
pop of  19 C 2pz          1.06191
pop of  20 C 1s           1.99126
pop of  20 C 2s           1.09539
pop of  20 C 2px          0.98609
pop of  20 C 2py          1.05620
pop of  20 C 2pz          0.99317
pop of  21 C 1s           1.99135
pop of  21 C 2s           1.19621
pop of  21 C 2px          0.98168
pop of  21 C 2py          0.97944
pop of  21 C 2pz          0.92682
pop of  22 H 1s           1.00780
pop of  23 H 1s           0.87816
pop of  24 H 1s           0.94581
pop of  25 H 1s           0.96533
pop of  26 H 1s           0.92308
pop of  27 H 1s           0.88012
pop of  28 H 1s           1.01690
pop of  29 H 1s           0.89464
pop of  30 H 1s           0.90250
pop of  31 H 1s           0.98180
pop of  32 H 1s           0.89431
pop of  33 H 1s           0.87061
pop of  34 H 1s           0.89840
pop of  35 H 1s           0.89895
 ** Mulliken atomic charges  **
charge of    0C =     -0.02681
charge of    1C =     -0.01128
charge of    2C =      0.01318
charge of    3C =     -0.09233
charge of    4C =     -0.03727
charge of    5C =     -0.03535
charge of    6C =     -0.06249
charge of    7C =     -0.13994
charge of    8C =      0.02771
charge of    9C =     -0.01297
charge of   10C =     -0.01893
charge of   11C =     -0.14126
charge of   12C =      0.00590
charge of   13C =      0.02852
charge of   14C =     -0.10596
charge of   15C =      0.01324
charge of   16C =      0.02188
charge of   17C =     -0.05118
charge of   18C =     -0.11075
charge of   19C =     -0.10788
charge of   20C =     -0.12210
charge of   21C =     -0.07551
charge of   22H =     -0.00780
charge of   23H =      0.12184
charge of   24H =      0.05419
charge of   25H =      0.03467
charge of   26H =      0.07692
charge of   27H =      0.11988
charge of   28H =     -0.01690
charge of   29H =      0.10536
charge of   30H =      0.09750
charge of   31H =      0.01820
charge of   32H =      0.10569
charge of   33H =      0.12939
charge of   34H =      0.10160
charge of   35H =      0.10105
Dipole moment(X, Y, Z, Debye): -0.25343, -0.81017, -0.58012
nelec by numeric integration = 145.99999656621134
    CPU time for vxc     39.17 sec, wall time     16.21 sec
E1 = -4133.318935182955  Ecoul = 1911.1782696511493  Exc = -124.8472752506922
nelec by numeric integration = 145.99999656621134
    CPU time for vxc     38.31 sec, wall time     15.87 sec
E1 = -4133.318935182955  Ecoul = 1911.1782696511493  Exc = -124.8472752506922
