System: uname_result(system='Linux', node='cosmopc18', release='5.15.0-97-generic', version='#107-Ubuntu SMP Wed Feb 7 13:26:48 UTC 2024', machine='x86_64')  Threads 4
Python 3.11.8 (main, Feb 26 2024, 21:39:34) [GCC 11.2.0]
numpy 1.26.4  scipy 1.11.4
Date: Tue Apr  9 17:10:24 2024
PySCF version 2.3.0
PySCF path  /home/saade/miniconda3/envs/tutorial/lib/python3.11/site-packages/pyscf

[ENV] PYSCFAD_BACKEND torch
[CONFIG] conf_file None
[INPUT] verbose = 5
[INPUT] max_memory = 4000 
[INPUT] num. atoms = 36
[INPUT] num. electrons = 146
[INPUT] charge = 0
[INPUT] spin (= nelec alpha-beta = 2S) = 0
[INPUT] symmetry False subgroup None
[INPUT] Mole.unit = angstrom
[INPUT] Symbol           X                Y                Z      unit          X                Y                Z       unit  Magmom
[INPUT]  1 C      0.051083000000   3.730887000000   0.809224000000 AA    0.096532879621   7.050354631700   1.529211733425 Bohr   0.0
[INPUT]  2 C      0.062532000000   3.709246000000  -0.678458000000 AA    0.118168354021   7.009459068638  -1.282099807020 Bohr   0.0
[INPUT]  3 C     -0.138836000000   4.873466000000   1.299519000000 AA   -0.262362016230   9.209516017380   2.455735003669 Bohr   0.0
[INPUT]  4 C      0.109536000000   2.350769000000   1.226166000000 AA    0.206993040780   4.442309592118   2.317117923253 Bohr   0.0
[INPUT]  5 C      0.031002000000   5.049169000000  -1.466479000000 AA    0.058585289314   9.541546566644  -2.771243677426 Bohr   0.0
[INPUT]  6 C     -0.066105000000   2.426905000000  -1.267256000000 AA   -0.124920345464   4.586185780338  -2.394766769712 Bohr   0.0
[INPUT]  7 C      0.065849000000   6.109912000000  -0.923969000000 AA    0.124436575576  11.546060325194  -1.746048357588 Bohr   0.0
[INPUT]  8 C      0.016709000000   6.192466000000   0.643188000000 AA    0.031575433815  11.702064775681   1.215449166607 Bohr   0.0
[INPUT]  9 C      0.034460000000   1.215477000000   0.617293000000 AA    0.065119962253   2.296918640708   1.166514708611 Bohr   0.0
[INPUT] 10 C     -0.205759000000   1.318423000000  -0.626186000000 AA   -0.388828157664   2.491458386327  -1.183320043037 Bohr   0.0
[INPUT] 11 C     -0.054696000000  -0.137385000000   1.426933000000 AA   -0.103360460109  -0.259620023623   2.696512568104 Bohr   0.0
[INPUT] 12 C      0.034156000000  -0.151959000000  -1.358014000000 AA    0.064545485511  -0.287160892163  -2.566274533325 Bohr   0.0
[INPUT] 13 C      0.117327000000  -1.135118000000   0.810322000000 AA    0.221715897017  -2.145062139064   1.531286652710 Bohr   0.0
[INPUT] 14 C      0.014604000000  -1.177980000000  -0.715294000000 AA    0.027597560323  -2.226059580215  -1.351709758545 Bohr   0.0
[INPUT] 15 C     -0.137956000000  -2.482396000000   1.356415000000 AA   -0.260699057240  -4.691048572716   2.563252861252 Bohr   0.0
[INPUT] 16 C      0.093231000000  -2.379656000000  -1.415999000000 AA    0.176181056319  -4.496898110678  -2.675850302658 Bohr   0.0
[INPUT] 17 C     -0.125168000000  -3.558161000000   0.626017000000 AA   -0.236533239560  -6.723949797109   1.183000679322 Bohr   0.0
[INPUT] 18 C      0.095923000000  -3.606522000000  -0.649933000000 AA    0.181268199047  -6.815338842219  -1.228195369317 Bohr   0.0
[INPUT] 19 C     -0.011108000000  -4.903136000000   1.350360000000 AA   -0.020991077792  -9.265584191495   2.551810569568 Bohr   0.0
[INPUT] 20 C      0.017629000000  -5.041407000000  -1.373274000000 AA    0.033313981850  -9.526878512465  -2.595111753986 Bohr   0.0
[INPUT] 21 C     -0.087802000000  -6.023715000000   0.750059000000 AA   -0.165921733189 -11.383171602434   1.417406087265 Bohr   0.0
[INPUT] 22 C      0.070968000000  -6.132502000000  -0.869246000000 AA    0.134110083608 -11.588749238347  -1.642636874874 Bohr   0.0
[INPUT] 23 H     -0.004567000000   4.849486000000   2.414980000000 AA   -0.008630379211   9.164200384913   4.563650796302 Bohr   0.0
[INPUT] 24 H      0.116459000000   2.489796000000   2.628289000000 AA    0.220075614741   4.705032546038   4.966746386207 Bohr   0.0
[INPUT] 25 H      0.089202000000   4.902564000000  -2.703695000000 AA    0.168567349763   9.264503268152  -5.109243074356 Bohr   0.0
[INPUT] 26 H      0.111309000000   2.522430000000  -2.618711000000 AA    0.210343525199   4.766701868387  -4.948646589386 Bohr   0.0
[INPUT] 27 H      0.005160000000   7.025713000000  -1.355098000000 AA    0.009750986803  13.276673399796  -2.560764091946 Bohr   0.0
[INPUT] 28 H     -0.122748000000   6.859151000000   1.104877000000 AA   -0.231960102338  12.961916837037   2.087914931331 Bohr   0.0
[INPUT] 29 H     -0.015840000000   0.050325000000   2.382002000000 AA   -0.029933261813   0.095100467219   4.501331408166 Bohr   0.0
[INPUT] 30 H     -0.114942000000  -0.095063000000  -2.469926000000 AA   -0.217208900210  -0.179643034580  -4.667483687942 Bohr   0.0
[INPUT] 31 H      0.155114000000  -2.293823000000   2.572193000000 AA    0.293122978086  -4.334697248228   4.860740309523 Bohr   0.0
[INPUT] 32 H      0.036312000000  -2.492110000000  -2.365757000000 AA    0.068619735035  -4.709405372290  -4.470632807273 Bohr   0.0
[INPUT] 33 H      0.029668000000  -5.036495000000   2.603298000000 AA    0.056064394664  -9.517596177741   4.919520240628 Bohr   0.0
[INPUT] 34 H      0.044195000000  -4.995859000000  -2.319596000000 AA    0.083516446075  -9.440805266943  -4.383401159637 Bohr   0.0
[INPUT] 35 H     -0.152813000000  -7.045430000000   1.293078000000 AA   -0.288774718273 -13.313933129794   2.443563277700 Bohr   0.0
[INPUT] 36 H     -0.168093000000  -7.058204000000  -1.079727000000 AA   -0.317649733457 -13.338072491310  -2.040388319298 Bohr   0.0
[INPUT] ---------------- BASIS SET ---------------- 
[INPUT] l, kappa, [nprim/nctr], expnt,             c_1 c_2 ...
[INPUT] H
[INPUT] 0    0    [3    /1   ]  3.42525091        0.15432897
                                0.62391373        0.53532814
                                0.1688554         0.44463454
[INPUT] C
[INPUT] 0    0    [3    /1   ]  71.616837         0.15432897
                                13.045096         0.53532814
                                3.5305122         0.44463454
[INPUT] 0    0    [3    /1   ]  2.9412494         -0.09996723
                                0.6834831         0.39951283
                                0.2222899         0.70011547
[INPUT] 1    0    [3    /1   ]  2.9412494         0.15591627
                                0.6834831         0.60768372
                                0.2222899         0.39195739

nuclear repulsion = 1505.25200223143
number of shells = 80
number of NR pGTOs = 372
number of NR cGTOs = 124
basis = sto3g
ecp = {}
CPU time:     65607.22
atom C rad-grids = 99, ang-grids = [ 50  50  50  50  50  50  50  50  50  50  50  50  50  50  50  50  50  50
  50  50  50  50  50  50  50  50  50  50  50  50  50  86  86  86  86  86
  86  86  86  86  86  86  86 434 434 434 434 434 434 434 434 434 590 590
 590 590 590 590 590 590 590 590 590 590 590 590 590 590 590 590 590 590
 590 590 590 590 590 590 590 434 434 434 434 434 434 434 434 434 434 434
 434 434 434 434 434 434 434 434 434]
atom H rad-grids = 99, ang-grids = [ 50  50  50  50  50  50  50  50  50  50  50  50  50  50  50  50  50  50
  50  50  50  50  50  50  50  50  50  50  86  86  86  86  86  86  86 434
 434 434 434 434 434 434 434 590 590 590 590 590 590 590 590 590 590 590
 590 590 590 590 590 590 590 590 590 590 590 590 590 590 590 434 434 434
 434 434 434 434 434 434 434 434 434 434 434 434 434 434 434 434 434 434
 434 434 434 434 434 434 434 434 434]
tot_boxes 5270, boxes in each direction [ 8 29 15]
Padding 0 grids
tot grids = 1157832


******** <class 'pyscf.dft.rks.RKS'> ********
method = RKS
initial guess = minao
damping factor = 0
level_shift factor = 0
DIIS = <class 'pyscf.scf.diis.CDIIS'>
diis_start_cycle = 1
diis_space = 8
SCF conv_tol = 1e-10
SCF conv_tol_grad = None
SCF max_cycles = 50
direct_scf = True
direct_scf_tol = 1e-13
chkfile to save SCF result = /home/saade/mlelec/tutorials/tmppxw52ngt
max_memory 4000 MB (current use 691 MB)
XC library pyscf.dft.libxc version 6.1.0
    S. Lehtola, C. Steigemann, M. J.T. Oliveira, and M. A.L. Marques.,  SoftwareX 7, 1–5 (2018)
XC functionals = b3lypg
    P. J. Stephens, F. J. Devlin, C. F. Chabalowski, and M. J. Frisch.,  J. Phys. Chem. 98, 11623 (1994)
radial grids: 
    Treutler-Ahlrichs [JCP 102, 346 (1995); DOI:10.1063/1.469408] (M4) radial grids
    
becke partition: Becke, JCP 88, 2547 (1988); DOI:10.1063/1.454033
pruning grids: <function nwchem_prune at 0x7f9db5616ca0>
grids dens level: 3
symmetrized grids: False
atomic radii adjust function: <function treutler_atomic_radii_adjust at 0x7f9db5617380>
User specified grid scheme (99, 590)
small_rho_cutoff = 1e-07
Set gradient conv threshold to 1e-05
Initial guess from minao.
nelec by numeric integration = 145.2691775464531
    CPU time for vxc     38.03 sec, wall time     16.11 sec
E1 = -4109.775924689866  Ecoul = 1888.901034315768  Exc = -126.26909047481874
init E= -841.891978617487
cond(S) = 22.108321931578683
    CPU time for initialize scf     48.35 sec, wall time     18.58 sec
  HOMO = -0.224572095813737  LUMO = -0.145610525078597
  mo_energy =
[-1.01395482e+01 -1.01343187e+01 -1.01327765e+01 -1.01324140e+01
 -1.01288282e+01 -1.01248893e+01 -1.01242798e+01 -1.01154117e+01
 -1.01153392e+01 -1.01133818e+01 -1.01127300e+01 -1.01101414e+01
 -1.01049656e+01 -1.01031253e+01 -1.01015059e+01 -1.01012531e+01
 -1.01001947e+01 -1.00978563e+01 -1.00975981e+01 -1.00892351e+01
 -1.00827829e+01 -1.00817817e+01 -1.12113231e+00 -1.08126593e+00
 -1.04053875e+00 -1.01066185e+00 -9.77759146e-01 -9.59580498e-01
 -9.37217936e-01 -8.96504715e-01 -8.78057414e-01 -8.52141051e-01
 -8.18564346e-01 -7.76467559e-01 -7.41103564e-01 -7.01671314e-01
 -6.99931726e-01 -6.84077924e-01 -6.45740938e-01 -6.33287707e-01
 -6.03570943e-01 -5.96410047e-01 -5.74598320e-01 -5.65338781e-01
 -5.53954151e-01 -5.34851576e-01 -5.23791157e-01 -5.05087517e-01
 -4.98628758e-01 -4.91626053e-01 -4.80499719e-01 -4.77683623e-01
 -4.63039281e-01 -4.54570444e-01 -4.47863713e-01 -4.42539160e-01
 -4.31434498e-01 -4.22004259e-01 -4.13678211e-01 -3.96113411e-01
 -3.85566792e-01 -3.79992880e-01 -3.75968178e-01 -3.54016044e-01
 -3.48424549e-01 -3.43128636e-01 -3.37931379e-01 -3.29525252e-01
 -3.00327490e-01 -2.92971041e-01 -2.85122875e-01 -2.53680677e-01
 -2.24572096e-01 -1.45610525e-01 -1.07298922e-01 -5.95037638e-02
 -2.55100560e-02 -1.34735701e-02  3.19532439e-03  2.40241258e-02
  4.55714387e-02  6.03443025e-02  7.58185153e-02  9.23261300e-02
  1.06705896e-01  1.19695208e-01  1.42961648e-01  1.46138413e-01
  1.55782173e-01  1.73435270e-01  1.78627280e-01  1.94368066e-01
  2.06868585e-01  2.29028205e-01  2.33201309e-01  2.71782825e-01
  2.78493109e-01  2.87173298e-01  3.11925320e-01  3.28211376e-01
  3.54346837e-01  3.73716798e-01  3.79107062e-01  4.32625686e-01
  4.38113107e-01  4.52998416e-01  4.63408961e-01  4.68596804e-01
  5.13718588e-01  5.25058806e-01  5.43082168e-01  5.80828288e-01
  5.94885584e-01  6.28016668e-01  6.39164970e-01  6.50302027e-01
  7.05624336e-01  7.13093135e-01  7.37471284e-01  7.49804638e-01
  7.83864464e-01  8.31091603e-01  8.46782928e-01  8.77026028e-01]
nelec by numeric integration = 146.00000204401468
    CPU time for vxc     38.45 sec, wall time     16.03 sec
E1 = -4124.367701544708  Ecoul = 1908.4505442047316  Exc = -124.8867919305795
cycle= 1 E= -835.551947039126  delta_E= 6.34  |g|= 0.26  |ddm|= 9.32
    CPU time for cycle= 1     38.85 sec, wall time     16.10 sec
  HOMO = -0.104714445273312  LUMO = 0.00959616797097299
  mo_energy =
[-1.00307586e+01 -1.00265487e+01 -1.00263826e+01 -1.00090422e+01
 -1.00074529e+01 -1.00059824e+01 -1.00047932e+01 -9.99719446e+00
 -9.99543258e+00 -9.98909917e+00 -9.98780771e+00 -9.98765898e+00
 -9.98369469e+00 -9.98327084e+00 -9.97723477e+00 -9.97706034e+00
 -9.97494225e+00 -9.97149591e+00 -9.96742891e+00 -9.96428561e+00
 -9.96173554e+00 -9.95793062e+00 -8.45465319e-01 -8.28952896e-01
 -8.04534812e-01 -7.82829797e-01 -7.50015443e-01 -7.47890579e-01
 -7.39821465e-01 -6.99909625e-01 -6.94573765e-01 -6.75761074e-01
 -6.42992450e-01 -6.17227020e-01 -5.92400381e-01 -5.62111431e-01
 -5.56730495e-01 -5.45827273e-01 -5.16166604e-01 -5.00541230e-01
 -4.85879010e-01 -4.75315303e-01 -4.62267301e-01 -4.51828569e-01
 -4.34794381e-01 -4.22940454e-01 -4.09689040e-01 -4.00826204e-01
 -3.91100749e-01 -3.74810282e-01 -3.71870195e-01 -3.65155959e-01
 -3.57640593e-01 -3.48652295e-01 -3.42746973e-01 -3.37735170e-01
 -3.31143116e-01 -3.08719341e-01 -3.01626463e-01 -2.94987041e-01
 -2.86644148e-01 -2.75710828e-01 -2.50610168e-01 -2.48565565e-01
 -2.44053235e-01 -2.34454497e-01 -2.29012059e-01 -2.22223154e-01
 -2.08634708e-01 -1.84076737e-01 -1.77018649e-01 -1.48686000e-01
 -1.04714445e-01  9.59616797e-03  3.52873501e-02  9.38686982e-02
  1.36161689e-01  1.45896625e-01  1.65135498e-01  1.83905251e-01
  2.03468414e-01  2.11840295e-01  2.18077758e-01  2.46844570e-01
  2.58826179e-01  2.63281086e-01  2.71942182e-01  2.95279295e-01
  3.06870356e-01  3.27224950e-01  3.36464416e-01  3.42271234e-01
  3.61970452e-01  3.77429938e-01  3.91002233e-01  4.14809142e-01
  4.24415720e-01  4.31108928e-01  4.65084642e-01  4.81048667e-01
  5.19439561e-01  5.24858750e-01  5.32012447e-01  5.67752708e-01
  5.83911743e-01  6.00771097e-01  6.11954209e-01  6.17636034e-01
  6.38137966e-01  6.87330013e-01  7.04934009e-01  7.32325295e-01
  7.64697773e-01  7.80978720e-01  8.01187475e-01  8.04390304e-01
  8.63515800e-01  8.70821310e-01  9.08054716e-01  9.28223210e-01
  9.44979044e-01  9.81522051e-01  9.95106080e-01  1.06379997e+00]
nelec by numeric integration = 146.00000214474474
    CPU time for vxc     38.17 sec, wall time     15.85 sec
E1 = -4118.753612213497  Ecoul = 1902.675380493772  Exc = -124.73577869071846
cycle= 2 E= -835.562008179013  delta_E= -0.0101  |g|= 0.222  |ddm|= 0.782
    CPU time for cycle= 2     38.75 sec, wall time     15.94 sec
  HOMO = -0.12906182092886  LUMO = -0.0117807216355787
  mo_energy =
[-10.05117636 -10.05008617 -10.03695092 -10.03367789 -10.03021808
 -10.02802472 -10.02757577 -10.02588834 -10.0257673  -10.02351869
 -10.02087499 -10.01920284 -10.01786213 -10.01500996 -10.0145677
 -10.01367779 -10.01211599 -10.01015905 -10.00441762  -9.99926686
  -9.98410599  -9.98177681  -0.88484614  -0.85239222  -0.81934463
  -0.80272775  -0.78184955  -0.76544937  -0.75407376  -0.71627601
  -0.71217554  -0.68806043  -0.66334176  -0.63511805  -0.60925953
  -0.57902637  -0.57541513  -0.56450111  -0.53123954  -0.51732614
  -0.49920256  -0.49186675  -0.47570144  -0.46765237  -0.45735673
  -0.44017269  -0.42902529  -0.41333289  -0.40120782  -0.39555745
  -0.38842602  -0.38750915  -0.37291684  -0.36033828  -0.35944664
  -0.35510592  -0.34747142  -0.32809541  -0.32229408  -0.30732124
  -0.30056228  -0.29327604  -0.28062627  -0.26482901  -0.26247385
  -0.25456024  -0.24772788  -0.2455455   -0.22148697  -0.20307535
  -0.19854425  -0.15773058  -0.12906182  -0.01178072   0.02567959
   0.07157196   0.11482694   0.12539396   0.14243698   0.15896326
   0.17921605   0.19421071   0.20194563   0.23117279   0.24389655
   0.25144315   0.27214042   0.28215825   0.28523986   0.30361251
   0.31683708   0.33424229   0.34180538   0.3595339    0.36566339
   0.39903473   0.41648231   0.42254339   0.45280179   0.46528789
   0.49302386   0.51160595   0.51555631   0.5590609    0.5661831
   0.5841993    0.59736477   0.60015065   0.6375622    0.66092823
   0.67829818   0.71393117   0.72686367   0.76551915   0.78124049
   0.78754573   0.84291984   0.84758104   0.86984718   0.89133943
   0.91841535   0.9775568    0.98452998   1.02049271]
nelec by numeric integration = 146.0000020706447
    CPU time for vxc     38.10 sec, wall time     15.88 sec
E1 = -4121.7685086026195  Ecoul = 1905.7308825629445  Exc = -124.7883343467934
cycle= 3 E= -835.573958155038  delta_E= -0.0119  |g|= 0.134  |ddm|= 0.501
    CPU time for cycle= 3     38.43 sec, wall time     15.93 sec
  HOMO = -0.130109700286422  LUMO = -0.0128434694478612
  mo_energy =
[-10.03618704 -10.03611618 -10.03505398 -10.0319539  -10.03011283
 -10.0295765  -10.02911327 -10.02823264 -10.02708554 -10.02673323
 -10.02470458 -10.02238868 -10.01775865 -10.01693006 -10.01575347
 -10.01575161 -10.01529807 -10.01449828 -10.01322255 -10.01255319
 -10.00637008  -9.99730978  -0.87563119  -0.85188047  -0.82383383
  -0.80634117  -0.77900247  -0.77014391  -0.75689386  -0.7193515
  -0.70920812  -0.69349126  -0.66475604  -0.63750942  -0.61024791
  -0.57715154  -0.57541595  -0.56526502  -0.52931749  -0.51856706
  -0.50138892  -0.49336067  -0.47693078  -0.46881291  -0.45627946
  -0.43954603  -0.42945936  -0.41589307  -0.40486027  -0.39504501
  -0.3886387   -0.38476483  -0.37843163  -0.36224683  -0.36071574
  -0.35654711  -0.34621684  -0.32871811  -0.32459299  -0.30932303
  -0.29737026  -0.29406793  -0.2786321   -0.26536687  -0.26445359
  -0.25495256  -0.25088651  -0.24815265  -0.21966177  -0.20717134
  -0.19500819  -0.16381279  -0.1301097   -0.01284347   0.02024697
   0.07387793   0.11124817   0.12230573   0.14188411   0.16075889
   0.18256974   0.1961006    0.2063166    0.22786158   0.24096346
   0.25038112   0.26689849   0.28448263   0.28499326   0.30562153
   0.31674752   0.33436996   0.34069713   0.36003909   0.36915984
   0.40107366   0.4122271    0.41645559   0.45333827   0.45947783
   0.49503824   0.50936298   0.51229215   0.55587526   0.56862072
   0.58468477   0.59451288   0.59830948   0.63162684   0.66111178
   0.67893468   0.71149118   0.73619892   0.76513895   0.7763181
   0.78270536   0.84155384   0.84403959   0.87863621   0.89393953
   0.92004184   0.96998337   0.97129779   1.02431385]
nelec by numeric integration = 146.0000020969986
    CPU time for vxc     37.97 sec, wall time     15.82 sec
E1 = -4121.275799326784  Ecoul = 1905.2367920105635  Exc = -124.79316804204089
cycle= 4 E= -835.580173126831  delta_E= -0.00621  |g|= 0.041  |ddm|= 0.251
    CPU time for cycle= 4     38.35 sec, wall time     15.88 sec
  HOMO = -0.129534896845609  LUMO = -0.0120693938987264
  mo_energy =
[-10.03400431 -10.03296604 -10.03281739 -10.03133203 -10.03092456
 -10.03075968 -10.0282067  -10.02756222 -10.02539616 -10.02456101
 -10.02168121 -10.02063101 -10.02042595 -10.01924765 -10.01737336
 -10.01682443 -10.01575813 -10.01484722 -10.01450129 -10.01184964
 -10.00135655  -9.99542343  -0.87602494  -0.85171058  -0.82307493
  -0.80520761  -0.77807782  -0.76911401  -0.75707189  -0.71787729
  -0.70974126  -0.69194361  -0.66394457  -0.63672662  -0.61025587
  -0.57648564  -0.57560536  -0.56497357  -0.53023405  -0.51759353
  -0.50078994  -0.49251626  -0.47645228  -0.46800007  -0.45603385
  -0.43914604  -0.42863896  -0.41600503  -0.40481028  -0.39440454
  -0.38811918  -0.38498073  -0.37724428  -0.36178962  -0.36041249
  -0.35623373  -0.34678063  -0.32804586  -0.32396484  -0.30869672
  -0.29877577  -0.29422196  -0.27785216  -0.26557584  -0.26364774
  -0.25501933  -0.25015032  -0.2475489   -0.22195489  -0.20580654
  -0.19660685  -0.16304076  -0.1295349   -0.01206939   0.02092848
   0.07273672   0.11262845   0.12317744   0.14234627   0.16025217
   0.18270328   0.19524322   0.20501123   0.22870247   0.2420304
   0.25119675   0.26815946   0.28433754   0.28539409   0.30538335
   0.31692909   0.33302231   0.3400741    0.36023112   0.36911676
   0.40145228   0.41283946   0.41785813   0.45429363   0.46001412
   0.49587512   0.50815108   0.51272328   0.55629498   0.56712869
   0.58416467   0.59561921   0.59783617   0.63277321   0.66177731
   0.68017511   0.71238468   0.73451868   0.76611443   0.77836731
   0.78422689   0.84347221   0.84554234   0.8776289    0.89496045
   0.91904527   0.97086266   0.97413672   1.02562372]
nelec by numeric integration = 146.00000208791195
    CPU time for vxc     38.04 sec, wall time     15.88 sec
E1 = -4121.359579543915  Ecoul = 1905.3174020368697  Exc = -124.79049671109307
cycle= 5 E= -835.580671986708  delta_E= -0.000499  |g|= 0.0197  |ddm|= 0.0798
    CPU time for cycle= 5     38.69 sec, wall time     15.98 sec
  HOMO = -0.1291677742558  LUMO = -0.011616568539894
  mo_energy =
[-10.03369548 -10.03303286 -10.03261712 -10.03198255 -10.02963944
 -10.02947311 -10.02813369 -10.02590735 -10.02382405 -10.02135956
 -10.0199342  -10.01874493 -10.01853595 -10.01802156 -10.01770258
 -10.01564902 -10.01540422 -10.01528059 -10.0132078  -10.01174852
 -10.00154145  -9.99244692  -0.87583235  -0.85095806  -0.8219944
  -0.80444549  -0.7778879   -0.76815277  -0.75589611  -0.71703556
  -0.70908471  -0.69174091  -0.66345223  -0.63623422  -0.6095269
  -0.57612537  -0.57483897  -0.56437967  -0.52942674  -0.51723717
  -0.50020596  -0.49193414  -0.47590575  -0.46763984  -0.45563685
  -0.43868619  -0.42830166  -0.41528247  -0.40390785  -0.39406138
  -0.38746686  -0.38464436  -0.37672863  -0.36127074  -0.35992609
  -0.35557075  -0.34633244  -0.32744815  -0.32345644  -0.30832512
  -0.29836348  -0.29386119  -0.27763639  -0.26484323  -0.26314463
  -0.25430311  -0.24938668  -0.24702081  -0.22114657  -0.20496648
  -0.19582775  -0.16252072  -0.12916777  -0.01161657   0.02160266
   0.07360427   0.1135154    0.12393316   0.14298516   0.16086341
   0.18287104   0.19564622   0.20527197   0.22948216   0.24255456
   0.25144933   0.26831363   0.28486049   0.28559887   0.30586221
   0.31748554   0.33447229   0.34094191   0.36062278   0.36923893
   0.40177343   0.41381294   0.41838649   0.45464268   0.46095048
   0.49598413   0.50946751   0.5135183    0.5572713    0.56822583
   0.5850805    0.59641065   0.59887224   0.63353843   0.66234487
   0.68038374   0.71314337   0.7349094    0.76654582   0.77933063
   0.78482945   0.84321758   0.84614428   0.87790781   0.89527022
   0.92003301   0.97233114   0.97485251   1.02566059]
nelec by numeric integration = 146.00000209215435
    CPU time for vxc     38.11 sec, wall time     15.97 sec
E1 = -4121.283531186875  Ecoul = 1905.239429144986  Exc = -124.78870052868093
cycle= 6 E= -835.580800339139  delta_E= -0.000128  |g|= 0.00306  |ddm|= 0.0282
    CPU time for cycle= 6     38.50 sec, wall time     16.03 sec
  HOMO = -0.129027126827739  LUMO = -0.0114601554771926
  mo_energy =
[-10.03369944 -10.03268725 -10.0325095  -10.03231094 -10.02902657
 -10.02897853 -10.02822942 -10.02636599 -10.02401291 -10.02106532
 -10.01986139 -10.01865848 -10.01818048 -10.01809241 -10.01777989
 -10.01590939 -10.01541891 -10.01508077 -10.0123759  -10.01118342
 -10.00158774  -9.99311836  -0.87562492  -0.85086321  -0.82199465
  -0.80443187  -0.77774044  -0.76807004  -0.75597214  -0.71711647
  -0.70898253  -0.69168059  -0.66335615  -0.63612745  -0.60948677
  -0.57603278  -0.57477299  -0.56431325  -0.52938078  -0.51719495
  -0.50017248  -0.49191651  -0.47590328  -0.46754052  -0.45551539
  -0.43866616  -0.4282082   -0.41526973  -0.40390492  -0.39395895
  -0.38744374  -0.38451141  -0.37677354  -0.36122107  -0.35993328
  -0.35556633  -0.34625453  -0.32742515  -0.32340265  -0.30830575
  -0.29826681  -0.29379231  -0.27747734  -0.26482246  -0.26306699
  -0.2542642   -0.24928691  -0.24697026  -0.22105054  -0.20505856
  -0.19572966  -0.16246787  -0.12902713  -0.01146016   0.02169221
   0.07370507   0.11347199   0.1240261    0.14305067   0.16093904
   0.18298305   0.19576251   0.20536554   0.22951034   0.24264227
   0.25155653   0.26824415   0.28497947   0.28559176   0.30593892
   0.31759843   0.33447661   0.34096739   0.36070019   0.36935593
   0.40178027   0.41382753   0.41835399   0.4547495    0.46092502
   0.4962239    0.50952233   0.51360832   0.55726688   0.56821969
   0.58511744   0.5964213    0.59887273   0.63338397   0.66237659
   0.68052873   0.71319352   0.73508161   0.76665458   0.77919286
   0.78489071   0.8433631    0.84623741   0.8780744    0.89537111
   0.92006777   0.97242343   0.97471552   1.02589264]
nelec by numeric integration = 146.0000020920099
    CPU time for vxc     37.90 sec, wall time     15.91 sec
E1 = -4121.278163392368  Ecoul = 1905.2340411057148  Exc = -124.78868294894065
cycle= 7 E= -835.580803004163  delta_E= -2.67e-06  |g|= 0.00121  |ddm|= 0.00567
    CPU time for cycle= 7     38.42 sec, wall time     15.99 sec
  HOMO = -0.129029824356194  LUMO = -0.011447518440024
  mo_energy =
[-10.03366745 -10.03269005 -10.03251872 -10.03235378 -10.0290439
 -10.02891806 -10.0282611  -10.02637786 -10.02404345 -10.02121629
 -10.01994613 -10.01866759 -10.01829363 -10.01804515 -10.01779124
 -10.01573884 -10.01506677 -10.01490143 -10.01271682 -10.01127737
 -10.00171899  -9.99312672  -0.87561787  -0.85087229  -0.82201816
  -0.80444069  -0.77771893  -0.76810809  -0.75598683  -0.7171219
  -0.70898466  -0.69168142  -0.66335268  -0.63614465  -0.60947677
  -0.57603311  -0.57480303  -0.56433117  -0.52936735  -0.5172039
  -0.50019023  -0.49192547  -0.47591409  -0.46754965  -0.45551354
  -0.43864844  -0.42823535  -0.41526936  -0.40389528  -0.39395514
  -0.38742103  -0.38449831  -0.3767872   -0.36123813  -0.35993935
  -0.35557696  -0.34626134  -0.32743459  -0.32340694  -0.30829858
  -0.29823099  -0.29379206  -0.27747631  -0.26481801  -0.26310373
  -0.25425623  -0.24931714  -0.24699273  -0.22103571  -0.20508073
  -0.19572717  -0.16247951  -0.12902982  -0.01144752   0.0216995
   0.0736976    0.11345404   0.12399812   0.14305363   0.16093907
   0.18301345   0.19577638   0.2054107    0.22949662   0.24259891
   0.25152335   0.26825727   0.28497877   0.2855825    0.3059491
   0.31756685   0.33446443   0.34096761   0.36068128   0.36937042
   0.40180593   0.41381915   0.41835769   0.45477175   0.46091167
   0.49619176   0.50949484   0.51360914   0.55725773   0.56824361
   0.5851331    0.59639487   0.59886707   0.63335642   0.66243285
   0.68049424   0.71319279   0.7351009    0.76663855   0.77915423
   0.78487077   0.84336278   0.84620764   0.87808768   0.89540591
   0.92005699   0.97238971   0.97469011   1.02586893]
nelec by numeric integration = 146.00000209221085
    CPU time for vxc     38.94 sec, wall time     16.16 sec
E1 = -4121.280368226151  Ecoul = 1905.236309286858  Exc = -124.7887466662927
cycle= 8 E= -835.580803374155  delta_E= -3.7e-07  |g|= 0.000693  |ddm|= 0.00294
    CPU time for cycle= 8     39.35 sec, wall time     16.22 sec
  HOMO = -0.129042158965952  LUMO = -0.0114584928672111
  mo_energy =
[-10.03367451 -10.03269436 -10.03252254 -10.03229165 -10.0290298
 -10.02898049 -10.02823579 -10.02635131 -10.02403841 -10.02117361
 -10.01995393 -10.01868978 -10.01826033 -10.0180545  -10.01779666
 -10.01572477 -10.01523225 -10.01505044 -10.01261683 -10.01132072
 -10.00168899  -9.99308924  -0.87563009  -0.85087186  -0.82201511
  -0.80444837  -0.77773906  -0.76810622  -0.75597785  -0.71711977
  -0.70898545  -0.6916913   -0.66335914  -0.63615038  -0.60948866
  -0.57603981  -0.57479872  -0.56433568  -0.52937424  -0.51721062
  -0.50018857  -0.49192897  -0.47591862  -0.46755774  -0.45552374
  -0.4386662   -0.4282316   -0.41527019  -0.40390243  -0.3939619
  -0.38743701  -0.38450714  -0.37678375  -0.3612287   -0.35992982
  -0.35556976  -0.34625342  -0.32743399  -0.32340559  -0.30829612
  -0.29821875  -0.29378953  -0.27748745  -0.26482465  -0.2630946
  -0.25426468  -0.249315    -0.24698852  -0.22102376  -0.20507255
  -0.19572409  -0.16249333  -0.12904216  -0.01145849   0.02168891
   0.07370144   0.11345646   0.12400489   0.14304648   0.16094154
   0.18300699   0.19578772   0.20542012   0.2294977    0.24261838
   0.25153775   0.26826046   0.28498541   0.28559669   0.30594294
   0.31758465   0.33447161   0.34096665   0.36069496   0.36936446
   0.40178773   0.41381249   0.41834494   0.45475269   0.46090667
   0.49619783   0.50949728   0.51359789   0.55724187   0.56822911
   0.58512112   0.59639318   0.59886642   0.63335362   0.6624013
   0.68050279   0.71317922   0.7351015    0.76663614   0.77917207
   0.78487182   0.84334239   0.84621492   0.87808745   0.89537719
   0.92005891   0.97238117   0.97468698   1.02586457]
nelec by numeric integration = 146.0000020920809
    CPU time for vxc     38.35 sec, wall time     15.88 sec
E1 = -4121.280196156829  Ecoul = 1905.2361519816911  Exc = -124.78876160801855
cycle= 9 E= -835.580803551727  delta_E= -1.78e-07  |g|= 0.000152  |ddm|= 0.00128
    CPU time for cycle= 9     38.76 sec, wall time     15.95 sec
  HOMO = -0.129048367035142  LUMO = -0.0114616197233867
  mo_energy =
[-10.0336707  -10.03269059 -10.03251905 -10.03230157 -10.02908657
 -10.02897941 -10.02823977 -10.02634518 -10.02402204 -10.02118227
 -10.01994348 -10.01868038 -10.01824193 -10.01808706 -10.01779474
 -10.01574477 -10.01524093 -10.01502797 -10.0126277  -10.01132446
 -10.00167776  -9.99308492  -0.87562926  -0.85087909  -0.82201785
  -0.80444784  -0.77773947  -0.76811438  -0.75597719  -0.71712265
  -0.70898399  -0.69168658  -0.66336433  -0.63615402  -0.60948971
  -0.57604413  -0.57479842  -0.56434018  -0.52937371  -0.51720998
  -0.50018839  -0.49193407  -0.47591886  -0.46755661  -0.45552684
  -0.43866379  -0.42823488  -0.41526981  -0.40390117  -0.39396859
  -0.38744056  -0.38450911  -0.37678093  -0.36123166  -0.3599313
  -0.35557395  -0.34625449  -0.32743499  -0.32341004  -0.30829871
  -0.29821988  -0.29378733  -0.27748998  -0.26482098  -0.26309718
  -0.25426636  -0.24932422  -0.24699172  -0.22102329  -0.20507604
  -0.19572269  -0.16248992  -0.12904837  -0.01146162   0.02169368
   0.07370234   0.11345249   0.12399654   0.14304377   0.16094027
   0.18300953   0.19578952   0.20542003   0.22949262   0.24260945
   0.25153511   0.26826636   0.2849828    0.28559645   0.30594267
   0.31758075   0.3344747    0.34096968   0.36069354   0.36936489
   0.40179014   0.41380278   0.41834934   0.45474975   0.46091154
   0.49618974   0.50950158   0.51358676   0.55723326   0.5682292
   0.58511928   0.5963887    0.59886523   0.63336183   0.66239686
   0.68049676   0.71316793   0.73510321   0.76663235   0.77917073
   0.78486414   0.8433474    0.84620446   0.8780894    0.89538065
   0.9200616    0.97236781   0.97469609   1.02586404]
nelec by numeric integration = 146.00000209209912
    CPU time for vxc     37.91 sec, wall time     15.68 sec
E1 = -4121.2804877789  Ecoul = 1905.2364437297776  Exc = -124.78876174181568
cycle= 10 E= -835.580803559508  delta_E= -7.78e-09  |g|= 4.97e-05  |ddm|= 0.000276
    CPU time for cycle= 10     38.30 sec, wall time     15.74 sec
  HOMO = -0.129048387210823  LUMO = -0.0114608245665931
  mo_energy =
[-10.03367159 -10.03269249 -10.03252084 -10.03229821 -10.02906655
 -10.02897696 -10.02824063 -10.02634943 -10.02402531 -10.02118421
 -10.01994357 -10.01867922 -10.01825615 -10.01807801 -10.01779296
 -10.01574458 -10.01523849 -10.01503179 -10.01263172 -10.01132372
 -10.00167807  -9.99308963  -0.87563077  -0.85087769  -0.82201679
  -0.80444746  -0.77774046  -0.76811201  -0.75597803  -0.71712143
  -0.70898539  -0.69168711  -0.66336334  -0.63615298  -0.60948919
  -0.57604363  -0.57479929  -0.5643388   -0.52937457  -0.51720983
  -0.50018907  -0.49193227  -0.47591811  -0.46755733  -0.45552657
  -0.43866396  -0.42823442  -0.41527013  -0.40390146  -0.39396746
  -0.38743939  -0.38450954  -0.3767813   -0.36123155  -0.35993191
  -0.35557327  -0.34625566  -0.3274348   -0.32340933  -0.30829863
  -0.29822446  -0.29378989  -0.27749042  -0.26482218  -0.26309735
  -0.25426605  -0.24932197  -0.24699142  -0.22102749  -0.20507498
  -0.19572504  -0.16249078  -0.12904839  -0.01146082   0.02169347
   0.07370046   0.11345409   0.12399844   0.14304376   0.16093892
   0.18300662   0.19578461   0.20541559   0.22949407   0.24261091
   0.25153437   0.26826473   0.28498093   0.28559552   0.305942
   0.31757925   0.33447278   0.34096827   0.36069202   0.36936367
   0.40178998   0.41380654   0.41834947   0.45474966   0.46091133
   0.49618984   0.50950019   0.51359034   0.55723768   0.56822908
   0.58511901   0.59639057   0.59886501   0.63336202   0.66239801
   0.68049676   0.71317186   0.73509971   0.7666337    0.77917114
   0.78486694   0.84334757   0.84620736   0.87808653   0.89537959
   0.92005983   0.97237236   0.97469552   1.02586284]
nelec by numeric integration = 146.00000209211302
    CPU time for vxc     37.68 sec, wall time     15.62 sec
E1 = -4121.280397743201  Ecoul = 1905.2363527796329  Exc = -124.7887608282522
cycle= 11 E= -835.58080356039  delta_E= -8.82e-10  |g|= 1.69e-05  |ddm|= 9.05e-05
    CPU time for cycle= 11     38.25 sec, wall time     15.71 sec
  HOMO = -0.129048077936544  LUMO = -0.0114602597448459
  mo_energy =
[-10.03367193 -10.03269316 -10.03252151 -10.03230132 -10.02906901
 -10.02898031 -10.02824031 -10.02634858 -10.02402639 -10.02118106
 -10.01994729 -10.01867984 -10.01825478 -10.01807724 -10.01779361
 -10.01574508 -10.01523588 -10.01503198 -10.01262779 -10.01132157
 -10.00168102  -9.99308849  -0.87563121  -0.85087809  -0.8220172
  -0.8044477   -0.77773983  -0.76811178  -0.75597829  -0.7171219
  -0.70898603  -0.69168736  -0.6633631   -0.6361532   -0.60948964
  -0.5760435   -0.57479927  -0.56433883  -0.52937481  -0.51721006
  -0.50018882  -0.49193233  -0.47591851  -0.46755709  -0.45552646
  -0.43866415  -0.42823425  -0.41527044  -0.40390182  -0.39396715
  -0.38743965  -0.38450981  -0.37678154  -0.36123177  -0.3599322
  -0.35557366  -0.34625593  -0.32743522  -0.32340962  -0.30829895
  -0.29822443  -0.29378977  -0.27749005  -0.26482252  -0.26309714
  -0.2542664   -0.24932196  -0.24699142  -0.22102755  -0.20507552
  -0.19572562  -0.16249132  -0.12904808  -0.01146026   0.02169309
   0.07370004   0.11345377   0.12399847   0.14304388   0.16093866
   0.18300644   0.19578497   0.20541557   0.22949381   0.24261083
   0.25153459   0.26826443   0.28498102   0.28559492   0.3059416
   0.31757941   0.33447232   0.34096768   0.36069196   0.36936308
   0.40178971   0.41380659   0.41834922   0.45474994   0.46091082
   0.49619043   0.50949975   0.51359044   0.55723777   0.56822794
   0.5851192    0.59639035   0.59886485   0.6333614    0.66239813
   0.68049732   0.71317221   0.73509939   0.76663332   0.77917065
   0.78486666   0.84334683   0.84620698   0.87808611   0.8953797
   0.92005943   0.97237273   0.97469517   1.02586338]
nelec by numeric integration = 146.00000209210864
    CPU time for vxc     38.51 sec, wall time     15.80 sec
E1 = -4121.280457473743  Ecoul = 1905.2364130054052  Exc = -124.78876132358016
cycle= 12 E= -835.580803560488  delta_E= -9.73e-11  |g|= 6.97e-06  |ddm|= 3.25e-05
    CPU time for cycle= 12     38.97 sec, wall time     15.88 sec
  HOMO = -0.129047900903523  LUMO = -0.0114599816864043
  mo_energy =
[-10.03367143 -10.0326918  -10.03252017 -10.0322976  -10.02906772
 -10.02897704 -10.02824142 -10.02634886 -10.02402582 -10.02118252
 -10.01994527 -10.01868093 -10.01825393 -10.01807707 -10.01779459
 -10.01574367 -10.01523771 -10.01503031 -10.01262843 -10.01132215
 -10.0016767   -9.99308924  -0.87563012  -0.85087729  -0.82201679
  -0.80444733  -0.77773963  -0.7681115   -0.75597828  -0.71712102
  -0.70898529  -0.69168716  -0.66336279  -0.63615282  -0.60948922
  -0.5760431   -0.57479903  -0.5643385   -0.52937453  -0.51720961
  -0.50018884  -0.49193206  -0.47591819  -0.46755704  -0.45552603
  -0.43866368  -0.42823391  -0.4152703   -0.40390162  -0.39396694
  -0.38743905  -0.38450908  -0.37678152  -0.36123136  -0.35993167
  -0.35557299  -0.34625542  -0.32743465  -0.32340893  -0.30829848
  -0.29822368  -0.29378942  -0.27748968  -0.26482216  -0.26309685
  -0.2542659   -0.24932146  -0.24699097  -0.22102695  -0.20507463
  -0.19572472  -0.16249117  -0.1290479   -0.01145998   0.02169331
   0.07370076   0.11345459   0.12399894   0.14304414   0.16093915
   0.18300721   0.19578563   0.20541632   0.22949435   0.24261149
   0.25153498   0.26826454   0.28498167   0.2855958    0.30594231
   0.31758      0.33447268   0.34096843   0.36069244   0.36936417
   0.40179013   0.41380662   0.41834899   0.45474995   0.46091077
   0.49619069   0.50949999   0.51359063   0.55723769   0.56822871
   0.58511911   0.59639093   0.59886493   0.6333614    0.66239845
   0.68049759   0.71317222   0.73510049   0.76663373   0.77917166
   0.78486698   0.84334751   0.84620793   0.87808723   0.89538033
   0.92005981   0.97237298   0.97469492   1.02586377]
nelec by numeric integration = 146.00000209211296
    CPU time for vxc     39.49 sec, wall time     16.39 sec
E1 = -4121.28037107117  Ecoul = 1905.2363259342405  Exc = -124.78876065495255
Extra cycle  E= -835.580803560451  delta_E= 3.64e-11  |g|= 1.19e-05  |ddm|= 2.55e-05
    CPU time for scf_cycle    552.02 sec, wall time    226.41 sec
    CPU time for SCF    552.02 sec, wall time    226.41 sec
converged SCF energy = -835.580803560451
nelec by numeric integration = 146.00000209211296
    CPU time for vxc     38.77 sec, wall time     16.09 sec
 ** Mulliken pop  **
pop of  0 C 1s            1.99065
pop of  0 C 2s            1.08574
pop of  0 C 2px           1.00727
pop of  0 C 2py           0.98290
pop of  0 C 2pz           0.95428
pop of  1 C 1s            1.99109
pop of  1 C 2s            1.18430
pop of  1 C 2px           0.95364
pop of  1 C 2py           0.91732
pop of  1 C 2pz           0.92912
pop of  2 C 1s            1.99086
pop of  2 C 2s            1.13825
pop of  2 C 2px           0.98270
pop of  2 C 2py           0.96320
pop of  2 C 2pz           0.99540
pop of  3 C 1s            1.99150
pop of  3 C 2s            1.15419
pop of  3 C 2px           0.98121
pop of  3 C 2py           0.94127
pop of  3 C 2pz           0.93741
pop of  4 C 1s            1.99140
pop of  4 C 2s            1.14369
pop of  4 C 2px           0.98754
pop of  4 C 2py           0.96809
pop of  4 C 2pz           0.96655
pop of  5 C 1s            1.99122
pop of  5 C 2s            1.15177
pop of  5 C 2px           0.99574
pop of  5 C 2py           0.95270
pop of  5 C 2pz           0.95208
pop of  6 C 1s            1.99105
pop of  6 C 2s            1.10173
pop of  6 C 2px           1.00935
pop of  6 C 2py           1.04127
pop of  6 C 2pz           0.96516
pop of  7 C 1s            1.99146
pop of  7 C 2s            1.15576
pop of  7 C 2px           1.01979
pop of  7 C 2py           1.00139
pop of  7 C 2pz           0.96061
pop of  8 C 1s            1.99048
pop of  8 C 2s            1.08158
pop of  8 C 2px           1.00454
pop of  8 C 2py           0.96503
pop of  8 C 2pz           0.98394
pop of  9 C 1s            1.99077
pop of  9 C 2s            1.09436
pop of  9 C 2px           1.00129
pop of  9 C 2py           0.96004
pop of  9 C 2pz           0.97563
pop of  10 C 1s           1.99119
pop of  10 C 2s           1.09518
pop of  10 C 2px          1.01226
pop of  10 C 2py          0.97035
pop of  10 C 2pz          1.03245
pop of  11 C 1s           1.99154
pop of  11 C 2s           1.15953
pop of  11 C 2px          0.96244
pop of  11 C 2py          0.94774
pop of  11 C 2pz          0.98204
pop of  12 C 1s           1.99093
pop of  12 C 2s           1.09147
pop of  12 C 2px          0.98294
pop of  12 C 2py          0.99384
pop of  12 C 2pz          0.94503
pop of  13 C 1s           1.99058
pop of  13 C 2s           1.08005
pop of  13 C 2px          1.00497
pop of  13 C 2py          0.99154
pop of  13 C 2pz          0.96217
pop of  14 C 1s           1.99120
pop of  14 C 2s           1.16614
pop of  14 C 2px          0.97491
pop of  14 C 2py          0.93205
pop of  14 C 2pz          0.96000
pop of  15 C 1s           1.99075
pop of  15 C 2s           1.13447
pop of  15 C 2px          1.00758
pop of  15 C 2py          0.94032
pop of  15 C 2pz          1.01896
pop of  16 C 1s           1.99041
pop of  16 C 2s           1.07400
pop of  16 C 2px          1.01174
pop of  16 C 2py          0.96984
pop of  16 C 2pz          0.98790
pop of  17 C 1s           1.99084
pop of  17 C 2s           1.13709
pop of  17 C 2px          0.98386
pop of  17 C 2py          0.92111
pop of  17 C 2pz          0.95019
pop of  18 C 1s           1.99124
pop of  18 C 2s           1.17420
pop of  18 C 2px          1.00250
pop of  18 C 2py          0.94205
pop of  18 C 2pz          0.94768
pop of  19 C 1s           1.99104
pop of  19 C 2s           1.10806
pop of  19 C 2px          0.99811
pop of  19 C 2py          0.98164
pop of  19 C 2pz          1.03919
pop of  20 C 1s           1.99138
pop of  20 C 2s           1.18041
pop of  20 C 2px          0.98803
pop of  20 C 2py          0.97837
pop of  20 C 2pz          0.92987
pop of  21 C 1s           1.99132
pop of  21 C 2s           1.10708
pop of  21 C 2px          0.99868
pop of  21 C 2py          1.04508
pop of  21 C 2pz          0.96775
pop of  22 H 1s           0.92665
pop of  23 H 1s           0.99048
pop of  24 H 1s           0.93386
pop of  25 H 1s           0.96013
pop of  26 H 1s           0.89395
pop of  27 H 1s           0.87911
pop of  28 H 1s           0.88519
pop of  29 H 1s           0.91914
pop of  30 H 1s           0.93920
pop of  31 H 1s           0.89238
pop of  32 H 1s           0.94288
pop of  33 H 1s           0.89354
pop of  34 H 1s           0.93508
pop of  35 H 1s           0.88482
 ** Mulliken atomic charges  **
charge of    0C =     -0.02084
charge of    1C =      0.02453
charge of    2C =     -0.07040
charge of    3C =     -0.00557
charge of    4C =     -0.05727
charge of    5C =     -0.04350
charge of    6C =     -0.10857
charge of    7C =     -0.12900
charge of    8C =     -0.02557
charge of    9C =     -0.02209
charge of   10C =     -0.10143
charge of   11C =     -0.04330
charge of   12C =     -0.00421
charge of   13C =     -0.02931
charge of   14C =     -0.02431
charge of   15C =     -0.09208
charge of   16C =     -0.03390
charge of   17C =      0.01692
charge of   18C =     -0.05767
charge of   19C =     -0.11804
charge of   20C =     -0.06807
charge of   21C =     -0.10991
charge of   22H =      0.07335
charge of   23H =      0.00952
charge of   24H =      0.06614
charge of   25H =      0.03987
charge of   26H =      0.10605
charge of   27H =      0.12089
charge of   28H =      0.11481
charge of   29H =      0.08086
charge of   30H =      0.06080
charge of   31H =      0.10762
charge of   32H =      0.05712
charge of   33H =      0.10646
charge of   34H =      0.06492
charge of   35H =      0.11518
Dipole moment(X, Y, Z, Debye): -0.01915, -0.22242, -0.45667
nelec by numeric integration = 146.00000209211296
    CPU time for vxc     38.09 sec, wall time     15.85 sec
E1 = -4121.28037107117  Ecoul = 1905.2363259342412  Exc = -124.78876065495254
nelec by numeric integration = 146.00000209211296
    CPU time for vxc     37.43 sec, wall time     15.66 sec
E1 = -4121.28037107117  Ecoul = 1905.2363259342414  Exc = -124.78876065495255
