System: uname_result(system='Linux', node='cosmopc18', release='5.15.0-97-generic', version='#107-Ubuntu SMP Wed Feb 7 13:26:48 UTC 2024', machine='x86_64')  Threads 4
Python 3.11.8 (main, Feb 26 2024, 21:39:34) [GCC 11.2.0]
numpy 1.26.4  scipy 1.11.4
Date: Tue Apr  9 18:15:34 2024
PySCF version 2.3.0
PySCF path  /home/saade/miniconda3/envs/tutorial/lib/python3.11/site-packages/pyscf

[ENV] PYSCFAD_BACKEND torch
[CONFIG] conf_file None
[INPUT] verbose = 5
[INPUT] max_memory = 4000 
[INPUT] num. atoms = 36
[INPUT] num. electrons = 146
[INPUT] charge = 0
[INPUT] spin (= nelec alpha-beta = 2S) = 0
[INPUT] symmetry False subgroup None
[INPUT] Mole.unit = angstrom
[INPUT] Symbol           X                Y                Z      unit          X                Y                Z       unit  Magmom
[INPUT]  1 C     -0.113072000000   3.751755000000   0.712319000000 AA   -0.213675112357   7.089789436468   1.346087823324 Bohr   0.0
[INPUT]  2 C     -0.056071000000   3.573826000000  -0.831534000000 AA   -0.105958833530   6.753552356850  -1.571371523264 Bohr   0.0
[INPUT]  3 C     -0.095662000000   4.831173000000   1.386721000000 AA   -0.180774980528   9.129593830393   2.620522901183 Bohr   0.0
[INPUT]  4 C      0.058351000000   2.403717000000   1.476263000000 AA    0.110267409094   4.542366810961   2.789732757829 Bohr   0.0
[INPUT]  5 C     -0.113127000000   4.834947000000  -1.379423000000 AA   -0.213779047294   9.136725656787  -2.606731679926 Bohr   0.0
[INPUT]  6 C      0.037174000000   2.428169000000  -1.456384000000 AA    0.070248678955   4.588574394159  -2.752166892199 Bohr   0.0
[INPUT]  7 C      0.010424000000   6.219153000000  -0.848705000000 AA    0.019698505122  11.752495896767  -1.603820010549 Bohr   0.0
[INPUT]  8 C      0.047438000000   6.175201000000   0.903596000000 AA    0.089644827897  11.669438654140   1.707548967252 Bohr   0.0
[INPUT]  9 C      0.275955000000   1.104360000000   0.799234000000 AA    0.521479372704   2.086937942925   1.510333369441 Bohr   0.0
[INPUT] 10 C     -0.058787000000   1.283849000000  -0.795645000000 AA   -0.111091329685   2.426122995297  -1.503551142380 Bohr   0.0
[INPUT] 11 C     -0.007015000000  -0.051089000000   1.268894000000 AA   -0.013256428764  -0.096544217978   2.397862141104 Bohr   0.0
[INPUT] 12 C     -0.156470000000   0.157544000000  -1.448025000000 AA   -0.295685446711   0.297715012568  -2.736370671523 Bohr   0.0
[INPUT] 13 C     -0.002541000000  -1.252926000000   0.759909000000 AA   -0.004801794083  -2.367686994347   1.436019889592 Bohr   0.0
[INPUT] 14 C      0.039297000000  -1.180118000000  -0.856662000000 AA    0.074260567517  -2.230099814669  -1.618856561322 Bohr   0.0
[INPUT] 15 C      0.170905000000  -2.614817000000   1.368897000000 AA    0.322963643319  -4.941287995857   2.586840422739 Bohr   0.0
[INPUT] 16 C     -0.042836000000  -2.454116000000  -1.298679000000 AA   -0.080948308272  -4.637607117913  -2.454147633724 Bohr   0.0
[INPUT] 17 C     -0.094021000000  -3.634155000000   0.763199000000 AA   -0.177673939958  -6.867557644219   1.442237088542 Bohr   0.0
[INPUT] 18 C      0.146092000000  -3.711566000000  -0.655277000000 AA    0.276073868990  -7.013843233247  -1.238294065727 Bohr   0.0
[INPUT] 19 C      0.069379000000  -4.857680000000   1.265407000000 AA    0.131107308796  -9.179684800777   2.391272666108 Bohr   0.0
[INPUT] 20 C     -0.032313000000  -4.855434000000  -1.511618000000 AA   -0.061062720263  -9.175440475901  -2.856544024963 Bohr   0.0
[INPUT] 21 C     -0.115372000000  -6.328795000000   0.725590000000 AA   -0.218021482443 -11.959689248517   1.371166378723 Bohr   0.0
[INPUT] 22 C      0.014369000000  -6.217553000000  -0.959057000000 AA    0.027153474684 -11.749472334968  -1.812355067847 Bohr   0.0
[INPUT] 23 H      0.051807000000   5.056476000000   2.636609000000 AA    0.097901041335   9.555354795436   4.982468907563 Bohr   0.0
[INPUT] 24 H     -0.193309000000   2.422696000000   2.451024000000 AA   -0.365301067414   4.578231923079   4.631764084736 Bohr   0.0
[INPUT] 25 H     -0.102281000000   4.813767000000  -2.656962000000 AA   -0.193283077747   9.096701257469  -5.020930503377 Bohr   0.0
[INPUT] 26 H      0.012106000000   2.410349000000  -2.494838000000 AA    0.022877024464   4.554899474619  -4.714560545158 Bohr   0.0
[INPUT] 27 H      0.145598000000   7.148893000000  -1.274448000000 AA    0.275140344284  13.509449863820  -2.408357680000 Bohr   0.0
[INPUT] 28 H      0.030206000000   7.135575000000   1.280386000000 AA    0.057081067319  13.484282491293   2.419578873727 Bohr   0.0
[INPUT] 29 H     -0.059018000000   0.015923000000   2.588105000000 AA   -0.111527856420   0.030090109081   4.890809631617 Bohr   0.0
[INPUT] 30 H     -0.103493000000   0.006452000000  -2.446732000000 AA   -0.195573425810   0.012192512956  -4.623653380209 Bohr   0.0
[INPUT] 31 H     -0.096904000000  -2.362056000000   2.565099000000 AA   -0.183122020375  -4.463638930886   4.847334592396 Bohr   0.0
[INPUT] 32 H     -0.080936000000  -2.459941000000  -2.414610000000 AA   -0.152946873618  -4.648614772589  -4.562951597636 Bohr   0.0
[INPUT] 33 H     -0.036842000000  -4.963283000000   2.515679000000 AA   -0.069621289881  -9.379245548710   4.753944327320 Bohr   0.0
[INPUT] 34 H      0.220459000000  -4.872914000000  -2.509369000000 AA    0.416607131695  -9.208472888559  -4.742020155474 Bohr   0.0
[INPUT] 35 H     -0.218476000000  -7.088654000000   1.281429000000 AA   -0.412859804790 -13.395614651803   2.421549858075 Bohr   0.0
[INPUT] 36 H     -0.010336000000  -7.049657000000  -1.168255000000 AA   -0.019532209224 -13.321921002123  -2.207681993654 Bohr   0.0
[INPUT] ---------------- BASIS SET ---------------- 
[INPUT] l, kappa, [nprim/nctr], expnt,             c_1 c_2 ...
[INPUT] H
[INPUT] 0    0    [3    /1   ]  3.42525091        0.15432897
                                0.62391373        0.53532814
                                0.1688554         0.44463454
[INPUT] C
[INPUT] 0    0    [3    /1   ]  71.616837         0.15432897
                                13.045096         0.53532814
                                3.5305122         0.44463454
[INPUT] 0    0    [3    /1   ]  2.9412494         -0.09996723
                                0.6834831         0.39951283
                                0.2222899         0.70011547
[INPUT] 1    0    [3    /1   ]  2.9412494         0.15591627
                                0.6834831         0.60768372
                                0.2222899         0.39195739

nuclear repulsion = 1479.55278449
number of shells = 80
number of NR pGTOs = 372
number of NR cGTOs = 124
basis = sto3g
ecp = {}
CPU time:     75159.92
atom C rad-grids = 99, ang-grids = [ 50  50  50  50  50  50  50  50  50  50  50  50  50  50  50  50  50  50
  50  50  50  50  50  50  50  50  50  50  50  50  50  86  86  86  86  86
  86  86  86  86  86  86  86 434 434 434 434 434 434 434 434 434 590 590
 590 590 590 590 590 590 590 590 590 590 590 590 590 590 590 590 590 590
 590 590 590 590 590 590 590 434 434 434 434 434 434 434 434 434 434 434
 434 434 434 434 434 434 434 434 434]
atom H rad-grids = 99, ang-grids = [ 50  50  50  50  50  50  50  50  50  50  50  50  50  50  50  50  50  50
  50  50  50  50  50  50  50  50  50  50  86  86  86  86  86  86  86 434
 434 434 434 434 434 434 434 590 590 590 590 590 590 590 590 590 590 590
 590 590 590 590 590 590 590 590 590 590 590 590 590 590 590 434 434 434
 434 434 434 434 434 434 434 434 434 434 434 434 434 434 434 434 434 434
 434 434 434 434 434 434 434 434 434]
tot_boxes 5270, boxes in each direction [ 8 29 15]
Padding 0 grids
tot grids = 1157832


******** <class 'pyscf.dft.rks.RKS'> ********
method = RKS
initial guess = minao
damping factor = 0
level_shift factor = 0
DIIS = <class 'pyscf.scf.diis.CDIIS'>
diis_start_cycle = 1
diis_space = 8
SCF conv_tol = 1e-10
SCF conv_tol_grad = None
SCF max_cycles = 50
direct_scf = True
direct_scf_tol = 1e-13
chkfile to save SCF result = /home/saade/mlelec/tutorials/tmptj8gl23a
max_memory 4000 MB (current use 690 MB)
XC library pyscf.dft.libxc version 6.1.0
    S. Lehtola, C. Steigemann, M. J.T. Oliveira, and M. A.L. Marques.,  SoftwareX 7, 1–5 (2018)
XC functionals = b3lypg
    P. J. Stephens, F. J. Devlin, C. F. Chabalowski, and M. J. Frisch.,  J. Phys. Chem. 98, 11623 (1994)
radial grids: 
    Treutler-Ahlrichs [JCP 102, 346 (1995); DOI:10.1063/1.469408] (M4) radial grids
    
becke partition: Becke, JCP 88, 2547 (1988); DOI:10.1063/1.454033
pruning grids: <function nwchem_prune at 0x7f9db5616ca0>
grids dens level: 3
symmetrized grids: False
atomic radii adjust function: <function treutler_atomic_radii_adjust at 0x7f9db5617380>
User specified grid scheme (99, 590)
small_rho_cutoff = 1e-07
Set gradient conv threshold to 1e-05
Initial guess from minao.
nelec by numeric integration = 145.26420096274882
    CPU time for vxc     37.44 sec, wall time     15.70 sec
E1 = -4059.753935389159  Ecoul = 1865.3289782999432  Exc = -125.7275888227024
init E= -840.599761421917
cond(S) = 19.780955140244654
    CPU time for initialize scf     47.06 sec, wall time     18.00 sec
  HOMO = -0.20491028554474  LUMO = -0.15570625171573
  mo_energy =
[-10.14442327 -10.12816043 -10.1230798  -10.11800162 -10.11669257
 -10.11436608 -10.10919838 -10.10509213 -10.10380975 -10.09959687
 -10.09894267 -10.09741005 -10.09674715 -10.09373726 -10.08949395
 -10.08789499 -10.0872972  -10.07864041 -10.07760625 -10.06577553
 -10.06571638 -10.06079937  -1.09016913  -1.06585756  -1.01161511
  -0.97234426  -0.94337441  -0.92708892  -0.90016352  -0.87293695
  -0.8323596   -0.82670844  -0.78975282  -0.77209374  -0.7236492
  -0.70772345  -0.67917199  -0.67058395  -0.66493103  -0.62956242
  -0.6227136   -0.57879845  -0.56318209  -0.54454291  -0.52735933
  -0.51863164  -0.51151093  -0.49457061  -0.48776844  -0.47326959
  -0.46972753  -0.46285145  -0.45502256  -0.45024755  -0.44228182
  -0.43076912  -0.41569717  -0.41283799  -0.40041607  -0.39539293
  -0.38481532  -0.37536355  -0.35142977  -0.34951328  -0.32179544
  -0.31256633  -0.31017289  -0.28984976  -0.28516129  -0.26733337
  -0.24744523  -0.23876634  -0.20491029  -0.15570625  -0.10179084
  -0.09413801  -0.0631042   -0.03116201  -0.01468765   0.01684524
   0.03003185   0.06913351   0.07698503   0.1033053    0.1208586
   0.13248305   0.13916527   0.14528118   0.15913615   0.16743667
   0.17569908   0.18431878   0.20247733   0.22860123   0.23727731
   0.24604867   0.25416383   0.28612944   0.29904184   0.31581795
   0.31912392   0.33260368   0.34238875   0.36817248   0.37544732
   0.41971923   0.45006116   0.46491624   0.47292116   0.49121992
   0.49577181   0.524525     0.55009694   0.56521963   0.58916625
   0.60145631   0.62183464   0.63402207   0.67471959   0.69080814
   0.70836201   0.73299515   0.76074216   0.79686012]
nelec by numeric integration = 146.000005996526
    CPU time for vxc     38.43 sec, wall time     15.95 sec
E1 = -4075.4454990935383  Ecoul = 1884.672882398025  Exc = -124.40628514381524
cycle= 1 E= -835.626117349327  delta_E= 4.97  |g|= 0.29  |ddm|= 9.21
    CPU time for cycle= 1     38.79 sec, wall time     16.01 sec
  HOMO = -0.0824707757769203  LUMO = -0.00309939232570504
  mo_energy =
[-1.00437882e+01 -1.00417422e+01 -1.00367888e+01 -1.00266106e+01
 -1.00233644e+01 -1.00110884e+01 -1.00095008e+01 -1.00071269e+01
 -9.99549161e+00 -9.98947401e+00 -9.98507839e+00 -9.98440028e+00
 -9.97592014e+00 -9.96669881e+00 -9.95936658e+00 -9.95588248e+00
 -9.94952458e+00 -9.94297900e+00 -9.94166364e+00 -9.93628056e+00
 -9.92735261e+00 -9.92441335e+00 -8.12884380e-01 -8.05307617e-01
 -7.70689012e-01 -7.41797190e-01 -7.32097432e-01 -7.16768409e-01
 -7.01275359e-01 -6.93159809e-01 -6.70949653e-01 -6.52225413e-01
 -6.31137547e-01 -6.18190140e-01 -5.88207750e-01 -5.66527266e-01
 -5.56921735e-01 -5.30597701e-01 -5.22768076e-01 -4.93246894e-01
 -4.86369916e-01 -4.56052498e-01 -4.49131791e-01 -4.37099977e-01
 -4.21423064e-01 -4.08589100e-01 -4.05600863e-01 -3.87351941e-01
 -3.71113098e-01 -3.65908374e-01 -3.47219316e-01 -3.46828250e-01
 -3.31381531e-01 -3.26467441e-01 -3.21141460e-01 -3.16684904e-01
 -3.13949600e-01 -3.07896734e-01 -3.01483050e-01 -2.77574207e-01
 -2.69101032e-01 -2.51353909e-01 -2.39359666e-01 -2.28521577e-01
 -2.24867815e-01 -2.21654258e-01 -2.09360759e-01 -1.96437680e-01
 -1.79422957e-01 -1.63286512e-01 -1.39482905e-01 -1.28587091e-01
 -8.24707758e-02 -3.09939233e-03  3.36895887e-02  5.64640707e-02
  6.42946339e-02  1.22116342e-01  1.38623353e-01  1.79024832e-01
  2.06416170e-01  2.17165584e-01  2.34241014e-01  2.40686925e-01
  2.52071074e-01  2.60291086e-01  2.89325136e-01  2.99919609e-01
  3.01416792e-01  3.38403097e-01  3.48237784e-01  3.52484570e-01
  3.59277065e-01  3.64957760e-01  3.83285651e-01  3.91978079e-01
  4.18968529e-01  4.21869326e-01  4.48113666e-01  4.62199429e-01
  4.64356497e-01  5.04725108e-01  5.12064956e-01  5.26358182e-01
  5.42712636e-01  5.59042397e-01  5.72800954e-01  6.06425942e-01
  6.15068647e-01  6.21544833e-01  6.49094468e-01  6.65983671e-01
  6.92458155e-01  6.98885020e-01  7.65722857e-01  7.78678311e-01
  7.95871004e-01  8.19427422e-01  8.33123214e-01  8.54577703e-01
  8.68552389e-01  9.01315294e-01  9.46391261e-01  9.94413796e-01]
nelec by numeric integration = 146.00000600612503
    CPU time for vxc     38.57 sec, wall time     16.00 sec
E1 = -4066.843793977544  Ecoul = 1875.9966062919607  Exc = -124.26667566754591
cycle= 2 E= -835.561078863128  delta_E= 0.065  |g|= 0.501  |ddm|= 1.25
    CPU time for cycle= 2     38.92 sec, wall time     16.06 sec
  HOMO = -0.104122283661095  LUMO = -0.0245983863491525
  mo_energy =
[-10.03572059 -10.0329437  -10.03139188 -10.03134368 -10.02997568
 -10.02468066 -10.01766023 -10.01667285 -10.01502218 -10.0121016
 -10.01077796 -10.01043397 -10.0102127  -10.01012841 -10.0099485
 -10.00699387 -10.00534028  -9.99932138  -9.98694603  -9.97132461
  -9.96842641  -9.96322375  -0.85204059  -0.83611953  -0.79927301
  -0.77242587  -0.75170428  -0.73852816  -0.72233725  -0.69857731
  -0.67098611  -0.66667     -0.63923993  -0.62971028  -0.59198657
  -0.58157822  -0.5617222   -0.55162616  -0.54321856  -0.51584169
  -0.51066844  -0.47469574  -0.46249867  -0.44593695  -0.42907386
  -0.42568197  -0.41798881  -0.40377415  -0.39506238  -0.38257542
  -0.37460015  -0.36919555  -0.35978017  -0.35335302  -0.34938834
  -0.33968933  -0.32680053  -0.32162248  -0.31629224  -0.29970013
  -0.29220142  -0.28743594  -0.26330187  -0.25312089  -0.22761686
  -0.22607835  -0.21929008  -0.20829577  -0.20311186  -0.1722489
  -0.1513449   -0.14330126  -0.10412228  -0.02459839   0.02829168
   0.03835701   0.06990383   0.10631699   0.12128184   0.1561889
   0.17154313   0.2041299    0.212461     0.22551114   0.25768757
   0.26985872   0.27550351   0.28826785   0.3019027    0.30717804
   0.31708943   0.32263234   0.3331875    0.36658825   0.37830464
   0.38554206   0.39363398   0.41594293   0.43579654   0.4497449
   0.45461441   0.47153592   0.47574361   0.49964636   0.5087119
   0.54393626   0.57910482   0.59212096   0.59853752   0.62044743
   0.62880126   0.66363294   0.6764851    0.6921129    0.73007395
   0.73835795   0.76101564   0.7735888    0.81714781   0.83063455
   0.84799208   0.85520496   0.90130103   0.94174163]
nelec by numeric integration = 146.0000059845211
    CPU time for vxc     38.83 sec, wall time     16.02 sec
E1 = -4072.165404980834  Ecoul = 1881.2548085521305  Exc = -124.29852333045456
cycle= 3 E= -835.656335269157  delta_E= -0.0953  |g|= 0.144  |ddm|= 0.969
    CPU time for cycle= 3     39.36 sec, wall time     16.10 sec
  HOMO = -0.109896885152307  LUMO = -0.029725060826508
  mo_energy =
[-10.03950897 -10.03581711 -10.03344666 -10.03291061 -10.02782886
 -10.02647029 -10.02569208 -10.024279   -10.02294401 -10.0179993
 -10.01727637 -10.01477238 -10.01383658 -10.01261233 -10.01089607
 -10.01073959 -10.01038332 -10.00804829 -10.00498554 -10.00361769
 -10.0024381   -9.99776595  -0.85237394  -0.83896462  -0.80392123
  -0.77723753  -0.75354451  -0.74275838  -0.72675637  -0.70503204
  -0.67832484  -0.67178756  -0.64452496  -0.63639134  -0.59890107
  -0.58440902  -0.5683561   -0.55244373  -0.54599799  -0.51992031
  -0.51350424  -0.4777092   -0.46696384  -0.45094704  -0.432758
  -0.42779067  -0.42121604  -0.40681391  -0.39957039  -0.38741282
  -0.37859829  -0.37026363  -0.36002124  -0.3574861   -0.35184832
  -0.34130067  -0.33119129  -0.32560149  -0.3216037   -0.30440988
  -0.29916505  -0.28860139  -0.26640787  -0.2568406   -0.23411822
  -0.23132616  -0.22433039  -0.21713414  -0.20409965  -0.18281932
  -0.15710736  -0.15123472  -0.10989689  -0.02972506   0.02193629
   0.0335709    0.05839264   0.10171485   0.11468516   0.15012794
   0.1701022    0.20180906   0.20967479   0.22434644   0.25513545
   0.25817181   0.27167038   0.27476789   0.29403077   0.30298496
   0.31802631   0.32125395   0.33358743   0.35965699   0.37335031
   0.3816327    0.39101251   0.41041852   0.43267753   0.44441373
   0.45262603   0.47061256   0.4757017    0.49679374   0.50932052
   0.54528984   0.57078108   0.58975244   0.5960241    0.61864296
   0.62313964   0.65584209   0.6680636    0.68116924   0.72568461
   0.73466951   0.75805991   0.77293485   0.81144584   0.82482956
   0.83972691   0.85023274   0.89624653   0.94120412]
nelec by numeric integration = 146.00000599967595
    CPU time for vxc     38.58 sec, wall time     15.93 sec
E1 = -4071.7203660927066  Ecoul = 1880.8189833323231  Exc = -124.3139825129142
cycle= 4 E= -835.662580783296  delta_E= -0.00625  |g|= 0.0703  |ddm|= 0.297
    CPU time for cycle= 4     38.96 sec, wall time     15.99 sec
  HOMO = -0.110561888679742  LUMO = -0.0303902525760972
  mo_energy =
[-10.04395183 -10.03537556 -10.0351765  -10.0333039  -10.03059336
 -10.02702691 -10.02509453 -10.02193719 -10.02186093 -10.02133955
 -10.02050326 -10.01378981 -10.01349257 -10.01231494 -10.01104571
 -10.00868238 -10.00864403 -10.0080099  -10.00680934 -10.00626857
 -10.00287472  -9.99961143  -0.85453698  -0.83789559  -0.80321093
  -0.7756241   -0.75457032  -0.7448584   -0.72481566  -0.70635307
  -0.67852634  -0.67218523  -0.64487458  -0.63651668  -0.59841289
  -0.58602475  -0.56808181  -0.55454915  -0.54453164  -0.51866899
  -0.51323715  -0.47789219  -0.46582772  -0.4502171   -0.43359497
  -0.42799424  -0.42202061  -0.40806327  -0.40018863  -0.3874677
  -0.37839353  -0.37185485  -0.36144705  -0.35745711  -0.35140748
  -0.34182758  -0.33321993  -0.32632946  -0.32107241  -0.30434982
  -0.29918062  -0.29018968  -0.26644193  -0.25748987  -0.23610676
  -0.23307706  -0.22350282  -0.21659324  -0.20463057  -0.18323521
  -0.15831172  -0.15242941  -0.11056189  -0.03039025   0.02143667
   0.03145998   0.05867204   0.09972073   0.11469394   0.15080616
   0.16981728   0.20204548   0.20792503   0.22346583   0.25523899
   0.25829233   0.27093957   0.27401943   0.29480427   0.30327753
   0.31708843   0.32108975   0.33127899   0.3601775    0.37195049
   0.38093158   0.39013256   0.41125667   0.43227653   0.44417799
   0.44978589   0.4703363    0.47439153   0.49723852   0.50761753
   0.54383849   0.57085141   0.58879512   0.593658     0.61715288
   0.62356926   0.65857093   0.6692579    0.68320808   0.72582867
   0.7350097    0.75789672   0.77136234   0.8156549    0.82667138
   0.83887116   0.84929251   0.89833859   0.93810639]
nelec by numeric integration = 146.00000598669897
    CPU time for vxc     38.91 sec, wall time     16.06 sec
E1 = -4071.861469211608  Ecoul = 1880.9582750170591  Exc = -124.31348621301012
cycle= 5 E= -835.663895917557  delta_E= -0.00132  |g|= 0.0368  |ddm|= 0.172
    CPU time for cycle= 5     39.43 sec, wall time     16.14 sec
  HOMO = -0.109804085818069  LUMO = -0.0294570555807214
  mo_energy =
[-10.04015217 -10.03759866 -10.03378283 -10.03355196 -10.03015497
 -10.02906452 -10.02226419 -10.02030414 -10.01708077 -10.01672359
 -10.01666896 -10.01421387 -10.01360475 -10.01316705 -10.01159937
 -10.01044096 -10.00870856 -10.00778447 -10.00581673 -10.00429211
 -10.0016043   -9.99832292  -0.85292891  -0.83818042  -0.80294338
  -0.77546202  -0.75386989  -0.74351386  -0.72542224  -0.7050626
  -0.67742677  -0.67171999  -0.6437814   -0.63596342  -0.59759015
  -0.58487933  -0.56721113  -0.55351069  -0.54496853  -0.51883399
  -0.51300643  -0.47740717  -0.46590441  -0.44970163  -0.433073
  -0.42768947  -0.42167156  -0.40718739  -0.39929753  -0.38720525
  -0.37827303  -0.37073467  -0.36054053  -0.35708092  -0.35176146
  -0.34163769  -0.33206712  -0.32590772  -0.32126373  -0.30390357
  -0.29888073  -0.28911216  -0.266034    -0.25695401  -0.23480102
  -0.23207797  -0.22369723  -0.21651154  -0.20443914  -0.18246201
  -0.15733364  -0.15179049  -0.10980409  -0.02945706   0.02234757
   0.03266401   0.0595098    0.10085189   0.11499924   0.15090297
   0.17038823   0.20230733   0.20910075   0.22420865   0.25571698
   0.25883404   0.27230469   0.27532841   0.29475254   0.30331645
   0.31737059   0.32132643   0.33192424   0.3600864    0.37293894
   0.38190678   0.39099958   0.41115251   0.43264789   0.44488771
   0.45087231   0.47034202   0.4754823    0.49772165   0.50820043
   0.54442063   0.57190025   0.58939695   0.5941602    0.61761162
   0.62407136   0.65762009   0.66941527   0.68326407   0.72670506
   0.73491343   0.7581885    0.77244344   0.81408506   0.82664222
   0.84087831   0.85115669   0.89801651   0.94105074]
nelec by numeric integration = 146.00000599276387
    CPU time for vxc     38.75 sec, wall time     15.93 sec
E1 = -4071.827866813539  Ecoul = 1880.9218512164732  Exc = -124.31115119183542
cycle= 6 E= -835.6643822989  delta_E= -0.000486  |g|= 0.0113  |ddm|= 0.0778
    CPU time for cycle= 6     39.15 sec, wall time     15.99 sec
  HOMO = -0.109497705601163  LUMO = -0.0291092250667592
  mo_energy =
[-10.03999079 -10.03594637 -10.03270848 -10.03202899 -10.02992772
 -10.02885369 -10.02262219 -10.01840141 -10.01822869 -10.01793374
 -10.0162254  -10.01457054 -10.01329367 -10.01255055 -10.00972359
 -10.00957905 -10.00913601 -10.00735442 -10.00496872 -10.0023489
 -10.00128786  -9.99855567  -0.8527372   -0.83768916  -0.80256912
  -0.77527572  -0.75345316  -0.74322517  -0.72491008  -0.70477581
  -0.67717204  -0.67134442  -0.64353219  -0.63557677  -0.59743248
  -0.58461204  -0.56703261  -0.55316181  -0.54460497  -0.51847384
  -0.51276737  -0.47715861  -0.46549543  -0.44960645  -0.43266925
  -0.42738909  -0.42120573  -0.40692334  -0.39917365  -0.38673307
  -0.37788405  -0.37070039  -0.36052043  -0.35679816  -0.35128366
  -0.34131318  -0.33193553  -0.32549409  -0.32083128  -0.30360073
  -0.29831641  -0.28915295  -0.26590647  -0.2565163   -0.23471339
  -0.23183036  -0.22321438  -0.21601637  -0.20439995  -0.18205713
  -0.15713374  -0.15138038  -0.10949771  -0.02910923   0.02264917
   0.03302267   0.05999464   0.10126174   0.11539894   0.15142776
   0.1704616    0.2024617    0.2092786    0.22420441   0.25601757
   0.25943137   0.27232403   0.27544682   0.29539092   0.30367728
   0.31750635   0.32156728   0.33197139   0.36067892   0.37312817
   0.38219184   0.39115532   0.41174592   0.43305314   0.44534093
   0.45135807   0.47080271   0.47545785   0.49797827   0.5084155
   0.54467346   0.57222334   0.58970025   0.59497431   0.61828466
   0.62443406   0.65845987   0.66982199   0.68381971   0.72688433
   0.7354617    0.75873403   0.77259947   0.81469592   0.82697304
   0.84071058   0.85088192   0.89840414   0.9406937 ]
nelec by numeric integration = 146.00000599147077
    CPU time for vxc     38.40 sec, wall time     15.86 sec
E1 = -4071.794803295977  Ecoul = 1880.8878972266673  Exc = -124.31030309339894
cycle= 7 E= -835.664424672708  delta_E= -4.24e-05  |g|= 0.00282  |ddm|= 0.0206
    CPU time for cycle= 7     38.80 sec, wall time     15.92 sec
  HOMO = -0.109494417049278  LUMO = -0.0290802810259015
  mo_energy =
[-10.04024875 -10.03593179 -10.0328174  -10.03220202 -10.02960945
 -10.02850902 -10.02293832 -10.01837787 -10.01836219 -10.01787464
 -10.01617759 -10.01389189 -10.01314323 -10.01211599 -10.00971849
 -10.00950658 -10.00880332 -10.00769543 -10.00497264 -10.00272325
 -10.00155334  -9.99810299  -0.85270109  -0.83763326  -0.80252823
  -0.77521962  -0.75346928  -0.74312319  -0.72489326  -0.70472685
  -0.67715576  -0.67129825  -0.64350606  -0.63559563  -0.59739009
  -0.58457418  -0.56701809  -0.553178    -0.54456288  -0.51844362
  -0.51273319  -0.47708968  -0.4655339   -0.44954534  -0.43269332
  -0.42735389  -0.42124653  -0.40687666  -0.39912116  -0.3867873
  -0.37785236  -0.37060005  -0.3604186   -0.35673123  -0.35124649
  -0.34125162  -0.33185384  -0.32544712  -0.32093554  -0.3035729
  -0.29834972  -0.2890156   -0.2657992   -0.25654222  -0.23458114
  -0.23171334  -0.22321383  -0.21612256  -0.20423188  -0.18206005
  -0.15704598  -0.15134831  -0.10949442  -0.02908028   0.02275851
   0.03308046   0.05998712   0.10129859   0.11547622   0.15137378
   0.1706004    0.20249683   0.20931123   0.22419841   0.25603281
   0.25929641   0.27244935   0.27558519   0.29534012   0.30376484
   0.31768985   0.32169701   0.33210386   0.36064139   0.37324125
   0.38215363   0.39124207   0.41166531   0.43305415   0.44524448
   0.451376     0.47084552   0.47556597   0.49804308   0.50853727
   0.54473976   0.57213996   0.58973579   0.59494468   0.6182585
   0.62443666   0.65838337   0.66985806   0.68371627   0.72695892
   0.73549449   0.75874037   0.77266387   0.81476247   0.82698475
   0.84083575   0.85102002   0.89846585   0.94073772]
nelec by numeric integration = 146.00000599131275
    CPU time for vxc     38.25 sec, wall time     15.87 sec
E1 = -4071.7898575582794  Ecoul = 1880.8830022944535  Exc = -124.31035673608125
cycle= 8 E= -835.664427509906  delta_E= -2.84e-06  |g|= 0.000907  |ddm|= 0.00539
    CPU time for cycle= 8     38.67 sec, wall time     15.93 sec
  HOMO = -0.109513628033551  LUMO = -0.0290921084855659
  mo_energy =
[-10.04019657 -10.0360364  -10.0328072  -10.03219795 -10.02970448
 -10.02861865 -10.0229032  -10.01840996 -10.01838965 -10.0177359
 -10.01624817 -10.0139068  -10.01334428 -10.01219346 -10.00984012
 -10.00958777 -10.00885715 -10.00765897 -10.00484236 -10.00261161
 -10.00148085  -9.9982678   -0.85268125  -0.83767052  -0.80255572
  -0.77524931  -0.75345954  -0.74315787  -0.72492196  -0.70476334
  -0.67717221  -0.67131384  -0.64351929  -0.635615    -0.59741245
  -0.58460094  -0.5670418   -0.55318481  -0.54459748  -0.51847474
  -0.51273694  -0.47710994  -0.46554332  -0.4495546   -0.43269371
  -0.42739385  -0.4212515   -0.40689477  -0.39913026  -0.38679469
  -0.37788421  -0.37060206  -0.36041551  -0.35674563  -0.35126803
  -0.34126034  -0.33184279  -0.32546777  -0.32093287  -0.3035868
  -0.2983762   -0.28902748  -0.26581708  -0.25653366  -0.23458558
  -0.23174133  -0.22323076  -0.21611179  -0.20423418  -0.18208176
  -0.15707019  -0.15136371  -0.10951363  -0.02909211   0.0227318
   0.03306504   0.05997528   0.10128262   0.11544158   0.15136876
   0.17057595   0.20249971   0.20931324   0.22422567   0.25604688
   0.25932804   0.27244164   0.27554306   0.29532378   0.30373825
   0.31769376   0.32166845   0.3321382    0.36062524   0.37324658
   0.38214919   0.39123941   0.4116416    0.43304911   0.44524259
   0.45137221   0.47082472   0.47556059   0.49800067   0.50848282
   0.54468537   0.57212229   0.58968877   0.59491931   0.61824113
   0.62441099   0.65835314   0.66981024   0.68370688   0.72694309
   0.73547163   0.75872171   0.77267826   0.81470969   0.82696523
   0.84078344   0.85099395   0.89842227   0.94078951]
nelec by numeric integration = 146.00000599131906
    CPU time for vxc     38.35 sec, wall time     15.88 sec
E1 = -4071.792511971474  Ecoul = 1880.8857038570313  Exc = -124.310404104927
cycle= 9 E= -835.664427729368  delta_E= -2.19e-07  |g|= 0.000524  |ddm|= 0.00192
    CPU time for cycle= 9     38.89 sec, wall time     15.96 sec
  HOMO = -0.109516292371484  LUMO = -0.0290888145065952
  mo_energy =
[-10.04022029 -10.03602243 -10.03279705 -10.03220506 -10.02969188
 -10.02860673 -10.02287944 -10.01839632 -10.018361   -10.01781041
 -10.01624597 -10.01398676 -10.01325554 -10.01222357 -10.00981456
 -10.00958811 -10.00888137 -10.00761497 -10.00492105 -10.00267298
 -10.00154725  -9.99823415  -0.85270084  -0.83766786  -0.80255561
  -0.77524231  -0.75346369  -0.7431615   -0.72491867  -0.70476214
  -0.67718722  -0.67131797  -0.64352642  -0.63562348  -0.59742104
  -0.58460297  -0.56705321  -0.55318615  -0.54458932  -0.51847896
  -0.51274082  -0.47711243  -0.46554618  -0.44956682  -0.43269667
  -0.42738359  -0.42125238  -0.40690024  -0.39913369  -0.38679819
  -0.37787758  -0.37060617  -0.36041264  -0.35674841  -0.35126939
  -0.34126242  -0.33184993  -0.32546842  -0.32092629  -0.30358737
  -0.29837352  -0.28902523  -0.2658175   -0.25653758  -0.23459401
  -0.2317437   -0.22323147  -0.21611794  -0.20423918  -0.18208927
  -0.1570838   -0.15137081  -0.10951629  -0.02908881   0.02272316
   0.03306311   0.05996661   0.1012776    0.11543633   0.15136887
   0.17057878   0.20250444   0.20931097   0.22422995   0.25603989
   0.25930908   0.27243794   0.27554007   0.29531884   0.30373657
   0.31767949   0.32167543   0.33212453   0.36062106   0.3732345
   0.38214933   0.39122759   0.41164575   0.4330508    0.44523667
   0.45136186   0.47082976   0.47555491   0.49801241   0.50849229
   0.54470684   0.5721069    0.58970008   0.59491935   0.61823624
   0.62441037   0.65835122   0.66981305   0.68369501   0.72693331
   0.73546923   0.75871873   0.77265621   0.81471439   0.8269699
   0.84076867   0.85099342   0.89842903   0.94075784]
nelec by numeric integration = 146.00000599136106
    CPU time for vxc     38.04 sec, wall time     15.78 sec
E1 = -4071.7925092248797  Ecoul = 1880.885719164881  Exc = -124.31042224945035
cycle= 10 E= -835.664427819447  delta_E= -9.01e-08  |g|= 0.000143  |ddm|= 0.000862
    CPU time for cycle= 10     38.61 sec, wall time     15.87 sec
  HOMO = -0.109521128687861  LUMO = -0.0290933784996293
  mo_energy =
[-10.04020969 -10.03601678 -10.03281857 -10.03219942 -10.0296999
 -10.02861357 -10.02289711 -10.01841252 -10.01836433 -10.01782181
 -10.01625393 -10.01399362 -10.01327816 -10.01222358 -10.00979877
 -10.00959614 -10.0088683  -10.00764387 -10.00492853 -10.00265534
 -10.00152534  -9.99824188  -0.85270501  -0.83767259  -0.80255956
  -0.77524988  -0.75347029  -0.74316427  -0.72492194  -0.70476338
  -0.67718321  -0.67132205  -0.64352786  -0.63562276  -0.59742022
  -0.58460547  -0.56705083  -0.55318934  -0.54459393  -0.51847741
  -0.512745    -0.4771168   -0.46554763  -0.44956853  -0.43269908
  -0.42738703  -0.4212543   -0.40690156  -0.39913832  -0.38679868
  -0.37788151  -0.37061319  -0.36042125  -0.35675283  -0.351273
  -0.34126818  -0.33185504  -0.32547229  -0.32092446  -0.30359135
  -0.298375    -0.28903429  -0.26582416  -0.25654349  -0.2345975
  -0.23174719  -0.22323168  -0.21611363  -0.20424641  -0.1820884
  -0.15708347  -0.15137509  -0.10952113  -0.02909338   0.0227237
   0.0330571    0.05996921   0.10127487   0.11543684   0.15136347
   0.17057053   0.20249701   0.20930603   0.22422301   0.25603668
   0.25931603   0.27243333   0.2755392    0.29532247   0.30373265
   0.31767255   0.32166826   0.33211712   0.36062826   0.37323024
   0.38214571   0.39122279   0.41164587   0.43304541   0.44523628
   0.45135884   0.47082346   0.47554752   0.49800548   0.5084857
   0.54469914   0.57211597   0.58969623   0.59491645   0.61823483
   0.62440779   0.65835373   0.66981237   0.6836989    0.72692971
   0.73546496   0.75871482   0.77265236   0.81471052   0.82696025
   0.84077524   0.85098794   0.89842241   0.9407537 ]
nelec by numeric integration = 146.00000599135427
    CPU time for vxc     38.12 sec, wall time     15.85 sec
E1 = -4071.793128212488  Ecoul = 1880.8863388840202  Exc = -124.31042298881368
cycle= 11 E= -835.66442782728  delta_E= -7.83e-09  |g|= 4.67e-05  |ddm|= 0.000271
    CPU time for cycle= 11     38.66 sec, wall time     15.93 sec
  HOMO = -0.109521958308191  LUMO = -0.0290932519297788
  mo_energy =
[-10.04021799 -10.03602048 -10.03280537 -10.03220516 -10.02970384
 -10.02861706 -10.02288637 -10.01840598 -10.01837677 -10.01782253
 -10.01626004 -10.01398849 -10.0132709  -10.01222817 -10.00980924
 -10.00960097 -10.00887929 -10.00764451 -10.00493022 -10.00264925
 -10.00152108  -9.99823227  -0.8527081   -0.83767497  -0.80255993
  -0.77524996  -0.75347214  -0.74316533  -0.72492334  -0.70476274
  -0.67718266  -0.67132195  -0.64352813  -0.63562209  -0.59741963
  -0.58460578  -0.56705003  -0.55319031  -0.54459472  -0.51847836
  -0.51274595  -0.47711774  -0.46554716  -0.44956847  -0.43269869
  -0.42738714  -0.42125373  -0.40690245  -0.39913904  -0.38679759
  -0.37788159  -0.37061536  -0.36042422  -0.35675431  -0.35127525
  -0.34126988  -0.33185608  -0.32547319  -0.32092378  -0.30359168
  -0.29837339  -0.28903613  -0.26582498  -0.25654436  -0.23459856
  -0.23174844  -0.22323225  -0.21611187  -0.20424896  -0.18208769
  -0.15708407  -0.15137416  -0.10952196  -0.02909325   0.022724
   0.03305796   0.0599707    0.10127323   0.11543576   0.15136403
   0.17056797   0.20249716   0.20930524   0.22422361   0.25603553
   0.2593178    0.2724323    0.27553879   0.29532317   0.30373102
   0.31767076   0.32166532   0.33211517   0.36062695   0.37323018
   0.38214901   0.39122239   0.41164834   0.4330445    0.44523869
   0.4513584    0.47082164   0.47554716   0.49800579   0.50848536
   0.54469915   0.57211836   0.58969691   0.59491657   0.61823335
   0.62440733   0.65835302   0.66981258   0.68370077   0.72692851
   0.73546282   0.75871248   0.77264944   0.81470776   0.82696233
   0.84077197   0.85098516   0.89842122   0.94075005]
nelec by numeric integration = 146.0000059913411
    CPU time for vxc     38.12 sec, wall time     15.80 sec
E1 = -4071.7933325529275  Ecoul = 1880.8865434493102  Exc = -124.31042321358908
cycle= 12 E= -835.664427827205  delta_E= 7.55e-11  |g|= 4.7e-05  |ddm|= 0.000124
    CPU time for cycle= 12     38.56 sec, wall time     15.88 sec
  HOMO = -0.109520026522378  LUMO = -0.0290913011213078
  mo_energy =
[-10.04021352 -10.03601784 -10.03280929 -10.03220268 -10.02969946
 -10.0286131  -10.0228884  -10.01840656 -10.01836871 -10.01781732
 -10.01625137 -10.01398798 -10.01327133 -10.01222467 -10.00980407
 -10.00959485 -10.00887068 -10.00763902 -10.00492494 -10.00265478
 -10.0015263   -9.9982357   -0.85270457  -0.83767169  -0.80255821
  -0.77524791  -0.75346937  -0.74316298  -0.72492117  -0.70476181
  -0.67718229  -0.67132046  -0.64352657  -0.63562136  -0.59741894
  -0.58460417  -0.5670495   -0.55318856  -0.54459284  -0.51847706
  -0.51274404  -0.47711563  -0.46554634  -0.44956711  -0.43269783
  -0.42738595  -0.42125317  -0.40690082  -0.39913701  -0.38679729
  -0.3778803   -0.37061254  -0.36042124  -0.35675189  -0.35127244
  -0.3412674   -0.33185408  -0.32547125  -0.3209244   -0.30359018
  -0.29837322  -0.28903341  -0.26582279  -0.25654205  -0.23459648
  -0.23174617  -0.22323111  -0.21611318  -0.20424633  -0.1820873
  -0.15708285  -0.15137317  -0.10952003  -0.0290913    0.02272503
   0.03305938   0.05997081   0.10127573   0.11543734   0.15136534
   0.1705712    0.20249826   0.20930691   0.22422387   0.25603703
   0.2593163    0.27243435   0.27554076   0.29532305   0.3037335
   0.31767342   0.32166843   0.33211748   0.36062717   0.37323175
   0.38214827   0.39122432   0.4116478    0.43304676   0.44523817
   0.45136008   0.47082424   0.47554916   0.49800732   0.50848741
   0.54470052   0.57211682   0.5896978    0.59491804   0.61823543
   0.62440915   0.6583543    0.66981375   0.68370044   0.72693085
   0.73546567   0.75871558   0.77265304   0.81471142   0.82696351
   0.84077542   0.85098845   0.8984241    0.94075408]
nelec by numeric integration = 146.00000599134586
    CPU time for vxc     38.31 sec, wall time     15.89 sec
E1 = -4071.793000476842  Ecoul = 1880.886207070349  Exc = -124.31041891156046
cycle= 13 E= -835.664427828052  delta_E= -8.47e-10  |g|= 7.89e-06  |ddm|= 8.07e-05
    CPU time for cycle= 13     38.75 sec, wall time     15.96 sec
  HOMO = -0.109520193830042  LUMO = -0.0290913069251196
  mo_energy =
[-10.04021302 -10.03601814 -10.03281006 -10.03220198 -10.02969941
 -10.02861282 -10.02288915 -10.01840592 -10.01836762 -10.01781762
 -10.01625312 -10.01398748 -10.01327033 -10.01222386 -10.00980439
 -10.0095953  -10.00887314 -10.00763925 -10.00492552 -10.00265457
 -10.00152545  -9.99823663  -0.85270442  -0.83767193  -0.80255821
  -0.77524807  -0.7534693   -0.74316308  -0.72492139  -0.70476184
  -0.67718226  -0.67132054  -0.64352672  -0.63562141  -0.59741897
  -0.58460412  -0.56704964  -0.55318848  -0.54459298  -0.51847702
  -0.51274407  -0.47711565  -0.46554644  -0.44956719  -0.43269792
  -0.42738597  -0.42125316  -0.4069008   -0.39913715  -0.38679729
  -0.37788034  -0.37061235  -0.36042103  -0.35675202  -0.35127261
  -0.34126748  -0.33185434  -0.32547119  -0.32092449  -0.30359014
  -0.29837321  -0.28903322  -0.26582283  -0.25654208  -0.23459688
  -0.2317463   -0.22323111  -0.2161131   -0.20424608  -0.18208745
  -0.15708277  -0.15137335  -0.10952019  -0.02909131   0.02272514
   0.03305932   0.05997069   0.1012756    0.1154373    0.15136513
   0.17057141   0.20249825   0.209307     0.22422396   0.25603705
   0.25931648   0.27243405   0.27554017   0.29532308   0.30373347
   0.31767351   0.32166858   0.3321174    0.36062718   0.3732316
   0.38214835   0.39122434   0.41164764   0.43304661   0.44523825
   0.45136009   0.47082434   0.47554931   0.49800729   0.50848748
   0.54470067   0.57211714   0.58969788   0.59491813   0.61823559
   0.62440901   0.658354     0.6698136    0.68370031   0.72693104
   0.73546578   0.75871536   0.77265293   0.8147109    0.82696331
   0.84077451   0.85098868   0.89842384   0.9407543 ]
nelec by numeric integration = 146.0000059913464
    CPU time for vxc     38.43 sec, wall time     15.85 sec
E1 = -4071.7929885942976  Ecoul = 1880.8861955196578  Exc = -124.3104192434188
cycle= 14 E= -835.664427828058  delta_E= -5.46e-12  |g|= 6.37e-06  |ddm|= 1.82e-05
    CPU time for cycle= 14     39.14 sec, wall time     15.95 sec
  HOMO = -0.109520614466313  LUMO = -0.029091753405449
  mo_energy =
[-10.04021499 -10.03601771 -10.03280849 -10.03220405 -10.02970026
 -10.02861403 -10.02288809 -10.0184075  -10.0183707  -10.01781953
 -10.01625195 -10.01398928 -10.01327288 -10.01222588 -10.00980414
 -10.00959549 -10.00887065 -10.00764086 -10.00492726 -10.00265369
 -10.00152568  -9.99823371  -0.85270581  -0.83767231  -0.80255862
  -0.77524833  -0.75347041  -0.74316357  -0.72492152  -0.70476206
  -0.67718241  -0.67132089  -0.64352692  -0.63562159  -0.59741906
  -0.5846047   -0.56704954  -0.55318923  -0.54459317  -0.51847733
  -0.5127446   -0.47711622  -0.46554655  -0.44956741  -0.43269819
  -0.42738624  -0.42125348  -0.40690131  -0.39913751  -0.38679754
  -0.37788056  -0.37061348  -0.36042211  -0.35675242  -0.35127303
  -0.341268    -0.33185453  -0.32547189  -0.32092426  -0.30359059
  -0.29837331  -0.28903421  -0.26582333  -0.25654282  -0.23459676
  -0.23174669  -0.22323129  -0.21611296  -0.20424706  -0.18208738
  -0.15708333  -0.1513735   -0.10952061  -0.02909175   0.02272477
   0.03305881   0.05997092   0.10127506   0.11543701   0.15136494
   0.17057025   0.20249797   0.20930631   0.22422367   0.25603664
   0.25931654   0.27243414   0.27554081   0.29532311   0.3037329
   0.31767258   0.32166769   0.33211675   0.36062726   0.37323138
   0.38214816   0.39122366   0.41164798   0.43304603   0.44523804
   0.45135943   0.47082338   0.47554833   0.49800691   0.50848672
   0.54470001   0.57211696   0.58969748   0.59491738   0.61823468
   0.62440876   0.6583543    0.6698137    0.68370062   0.72693004
   0.73546483   0.75871485   0.77265196   0.81471104   0.82696314
   0.84077531   0.85098753   0.89842361   0.9407526 ]
nelec by numeric integration = 146.0000059913439
    CPU time for vxc     38.33 sec, wall time     15.84 sec
E1 = -4071.793114094713  Ecoul = 1880.8863218600159  Exc = -124.31042008326376
Extra cycle  E= -835.664427827959  delta_E= 9.82e-11  |g|= 1.72e-05  |ddm|= 3.72e-05
    CPU time for scf_cycle    630.68 sec, wall time    257.63 sec
    CPU time for SCF    630.68 sec, wall time    257.63 sec
converged SCF energy = -835.664427827959
nelec by numeric integration = 146.0000059913439
    CPU time for vxc     37.92 sec, wall time     15.93 sec
 ** Mulliken pop  **
pop of  0 C 1s            1.99095
pop of  0 C 2s            1.14059
pop of  0 C 2px           0.99827
pop of  0 C 2py           0.94487
pop of  0 C 2pz           0.93274
pop of  1 C 1s            1.99062
pop of  1 C 2s            1.10102
pop of  1 C 2px           1.00029
pop of  1 C 2py           0.97226
pop of  1 C 2pz           0.93126
pop of  2 C 1s            1.99102
pop of  2 C 2s            1.12934
pop of  2 C 2px           1.02014
pop of  2 C 2py           0.95352
pop of  2 C 2pz           0.97522
pop of  3 C 1s            1.99124
pop of  3 C 2s            1.20888
pop of  3 C 2px           0.95177
pop of  3 C 2py           0.92495
pop of  3 C 2pz           0.98624
pop of  4 C 1s            1.99127
pop of  4 C 2s            1.18719
pop of  4 C 2px           0.99703
pop of  4 C 2py           0.92353
pop of  4 C 2pz           0.94224
pop of  5 C 1s            1.99042
pop of  5 C 2s            1.09001
pop of  5 C 2px           1.03630
pop of  5 C 2py           0.97120
pop of  5 C 2pz           1.01936
pop of  6 C 1s            1.99170
pop of  6 C 2s            1.24044
pop of  6 C 2px           0.96990
pop of  6 C 2py           0.94993
pop of  6 C 2pz           0.93781
pop of  7 C 1s            1.99168
pop of  7 C 2s            1.22412
pop of  7 C 2px           0.97409
pop of  7 C 2py           0.96391
pop of  7 C 2pz           0.92178
pop of  8 C 1s            1.99104
pop of  8 C 2s            1.15391
pop of  8 C 2px           0.99558
pop of  8 C 2py           0.95170
pop of  8 C 2pz           0.90973
pop of  9 C 1s            1.99075
pop of  9 C 2s            1.11433
pop of  9 C 2px           0.96671
pop of  9 C 2py           0.97278
pop of  9 C 2pz           0.95254
pop of  10 C 1s           1.99111
pop of  10 C 2s           1.10420
pop of  10 C 2px          0.99713
pop of  10 C 2py          0.99328
pop of  10 C 2pz          0.97366
pop of  11 C 1s           1.99074
pop of  11 C 2s           1.12171
pop of  11 C 2px          1.02008
pop of  11 C 2py          0.95006
pop of  11 C 2pz          1.01653
pop of  12 C 1s           1.99111
pop of  12 C 2s           1.15726
pop of  12 C 2px          0.96078
pop of  12 C 2py          0.94850
pop of  12 C 2pz          0.93839
pop of  13 C 1s           1.99114
pop of  13 C 2s           1.16755
pop of  13 C 2px          0.96915
pop of  13 C 2py          0.94491
pop of  13 C 2pz          0.92495
pop of  14 C 1s           1.99132
pop of  14 C 2s           1.14669
pop of  14 C 2px          0.99713
pop of  14 C 2py          0.93766
pop of  14 C 2pz          0.97243
pop of  15 C 1s           1.99088
pop of  15 C 2s           1.15064
pop of  15 C 2px          0.97634
pop of  15 C 2py          0.95513
pop of  15 C 2pz          0.99400
pop of  16 C 1s           1.99034
pop of  16 C 2s           1.05922
pop of  16 C 2px          1.01437
pop of  16 C 2py          1.01373
pop of  16 C 2pz          0.98247
pop of  17 C 1s           1.99063
pop of  17 C 2s           1.14628
pop of  17 C 2px          0.98937
pop of  17 C 2py          0.93333
pop of  17 C 2pz          0.92207
pop of  18 C 1s           1.99154
pop of  18 C 2s           1.20241
pop of  18 C 2px          0.95512
pop of  18 C 2py          0.92043
pop of  18 C 2pz          0.94606
pop of  19 C 1s           1.99083
pop of  19 C 2s           1.17508
pop of  19 C 2px          1.01850
pop of  19 C 2py          0.91219
pop of  19 C 2pz          0.98567
pop of  20 C 1s           1.99178
pop of  20 C 2s           1.23606
pop of  20 C 2px          0.97395
pop of  20 C 2py          0.95644
pop of  20 C 2pz          0.94614
pop of  21 C 1s           1.99176
pop of  21 C 2s           1.17593
pop of  21 C 2px          0.99257
pop of  21 C 2py          1.02520
pop of  21 C 2pz          0.94102
pop of  22 H 1s           0.93496
pop of  23 H 1s           0.90799
pop of  24 H 1s           0.97135
pop of  25 H 1s           0.89861
pop of  26 H 1s           0.90382
pop of  27 H 1s           0.90506
pop of  28 H 1s           0.96766
pop of  29 H 1s           0.90470
pop of  30 H 1s           0.93397
pop of  31 H 1s           0.93771
pop of  32 H 1s           0.97265
pop of  33 H 1s           0.90190
pop of  34 H 1s           0.89533
pop of  35 H 1s           0.88120
 ** Mulliken atomic charges  **
charge of    0C =     -0.00743
charge of    1C =      0.00455
charge of    2C =     -0.06923
charge of    3C =     -0.06308
charge of    4C =     -0.04126
charge of    5C =     -0.10730
charge of    6C =     -0.08977
charge of    7C =     -0.07558
charge of    8C =     -0.00195
charge of    9C =      0.00288
charge of   10C =     -0.05938
charge of   11C =     -0.09912
charge of   12C =      0.00396
charge of   13C =      0.00230
charge of   14C =     -0.04523
charge of   15C =     -0.06699
charge of   16C =     -0.06013
charge of   17C =      0.01831
charge of   18C =     -0.01555
charge of   19C =     -0.08227
charge of   20C =     -0.10436
charge of   21C =     -0.12647
charge of   22H =      0.06504
charge of   23H =      0.09201
charge of   24H =      0.02865
charge of   25H =      0.10139
charge of   26H =      0.09618
charge of   27H =      0.09494
charge of   28H =      0.03234
charge of   29H =      0.09530
charge of   30H =      0.06603
charge of   31H =      0.06229
charge of   32H =      0.02735
charge of   33H =      0.09810
charge of   34H =      0.10467
charge of   35H =      0.11880
Dipole moment(X, Y, Z, Debye): -0.04464,  0.90339,  0.09341
nelec by numeric integration = 146.0000059913439
    CPU time for vxc     38.43 sec, wall time     16.04 sec
E1 = -4071.793114094713  Ecoul = 1880.8863218600159  Exc = -124.31042008326376
nelec by numeric integration = 146.0000059913439
    CPU time for vxc     38.12 sec, wall time     15.84 sec
E1 = -4071.793114094713  Ecoul = 1880.8863218600163  Exc = -124.31042008326378
