System: uname_result(system='Linux', node='cosmopc18', release='5.15.0-97-generic', version='#107-Ubuntu SMP Wed Feb 7 13:26:48 UTC 2024', machine='x86_64')  Threads 4
Python 3.11.8 (main, Feb 26 2024, 21:39:34) [GCC 11.2.0]
numpy 1.26.4  scipy 1.11.4
Date: Tue Apr  9 18:05:36 2024
PySCF version 2.3.0
PySCF path  /home/saade/miniconda3/envs/tutorial/lib/python3.11/site-packages/pyscf

[ENV] PYSCFAD_BACKEND torch
[CONFIG] conf_file None
[INPUT] verbose = 5
[INPUT] max_memory = 4000 
[INPUT] num. atoms = 36
[INPUT] num. electrons = 146
[INPUT] charge = 0
[INPUT] spin (= nelec alpha-beta = 2S) = 0
[INPUT] symmetry False subgroup None
[INPUT] Mole.unit = angstrom
[INPUT] Symbol           X                Y                Z      unit          X                Y                Z       unit  Magmom
[INPUT]  1 C     -0.083671000000   3.696158000000   0.726441000000 AA   -0.158115274568   6.984726333120   1.372774535655 Bohr   0.0
[INPUT]  2 C     -0.159323000000   3.771950000000  -0.808762000000 AA   -0.301076835344   7.127952455553  -1.528338679955 Bohr   0.0
[INPUT]  3 C     -0.049162000000   4.934092000000   1.277973000000 AA   -0.092902715736   9.324082553407   2.415018964589 Bohr   0.0
[INPUT]  4 C     -0.071721000000   2.343163000000   1.281658000000 AA   -0.135533047380   4.427936335214   2.421982605358 Bohr   0.0
[INPUT]  5 C     -0.078594000000   4.897762000000  -1.425848000000 AA   -0.148521135034   9.255428803302  -2.694462215259 Bohr   0.0
[INPUT]  6 C     -0.013246000000   2.518672000000  -1.399914000000 AA   -0.025031312246   4.759600277611  -2.645454057944 Bohr   0.0
[INPUT]  7 C      0.043234000000   5.934872000000  -0.685313000000 AA    0.081700419269  11.215282664350  -1.295053879604 Bohr   0.0
[INPUT]  8 C      0.041240000000   6.160641000000   0.496933000000 AA    0.077932305377  11.641924241767   0.939067272258 Bohr   0.0
[INPUT]  9 C     -0.036470000000   1.318074000000   0.715972000000 AA   -0.068918311763   2.490798871910   1.352990992857 Bohr   0.0
[INPUT] 10 C      0.127561000000   1.100589000000  -0.711526000000 AA    0.241055354176   2.079811785709  -1.344589270507 Bohr   0.0
[INPUT] 11 C      0.131536000000   0.123052000000   1.420073000000 AA    0.248567015521   0.232534579080   2.683549046889 Bohr   0.0
[INPUT] 12 C     -0.024146000000  -0.175109000000  -1.444813000000 AA   -0.045629327004  -0.330908051946  -2.730300871211 Bohr   0.0
[INPUT] 13 C      0.143944000000  -1.067274000000   0.722977000000 AA    0.272014737274  -2.016855559869   1.366228524360 Bohr   0.0
[INPUT] 14 C      0.112955000000  -1.216648000000  -0.609872000000 AA    0.213454014400  -2.299131510000  -1.152491051041 Bohr   0.0
[INPUT] 15 C      0.024623000000  -2.363897000000   1.192194000000 AA    0.046530726365  -4.467117916681   2.252920147350 Bohr   0.0
[INPUT] 16 C      0.033998000000  -2.362044000000  -1.448946000000 AA    0.064246908783  -4.463616254172  -2.738111109284 Bohr   0.0
[INPUT] 17 C      0.008186000000  -3.809419000000   0.879841000000 AA    0.015469298056  -7.198758603715   1.662658523163 Bohr   0.0
[INPUT] 18 C      0.018248000000  -3.661140000000  -0.646160000000 AA    0.034483722321  -6.918551903690  -1.221065432649 Bohr   0.0
[INPUT] 19 C      0.035875000000  -4.926745000000   1.363822000000 AA    0.067793924719  -9.310198735570   2.577250062657 Bohr   0.0
[INPUT] 20 C      0.045812000000  -4.959500000000  -1.493462000000 AA    0.086572133219  -9.372096714780  -2.822234157445 Bohr   0.0
[INPUT] 21 C      0.099959000000  -6.141777000000   0.536600000000 AA    0.188895133685 -11.606276448153   1.014027038442 Bohr   0.0
[INPUT] 22 C     -0.014244000000  -6.061082000000  -0.894667000000 AA   -0.026917258918 -11.453784998531  -1.690675602686 Bohr   0.0
[INPUT] 23 H      0.002895000000   4.962208000000   2.470275000000 AA    0.005470757131   9.377214093126   4.668143202360 Bohr   0.0
[INPUT] 24 H      0.272417000000   2.417365000000   2.492585000000 AA    0.514793521676   4.568157793109   4.710302992199 Bohr   0.0
[INPUT] 25 H     -0.065183000000   4.937209000000  -2.443891000000 AA   -0.123178017978   9.329972829738  -4.618284668289 Bohr   0.0
[INPUT] 26 H      0.022608000000   2.474158000000  -2.415880000000 AA    0.042722928224   4.675481008902  -4.565351549814 Bohr   0.0
[INPUT] 27 H     -0.087751000000   6.977912000000  -1.165527000000 AA   -0.165825357157  13.186342601316  -2.202526820786 Bohr   0.0
[INPUT] 28 H     -0.148921000000   6.925897000000   1.144225000000 AA   -0.281419904196  13.088048496947   2.162271874880 Bohr   0.0
[INPUT] 29 H      0.174034000000  -0.207215000000   2.358508000000 AA    0.328876596363  -0.391579598902   4.456934182596 Bohr   0.0
[INPUT] 30 H      0.241977000000   0.183833000000  -2.417775000000 AA    0.457270258444   0.347394022657  -4.568932580820 Bohr   0.0
[INPUT] 31 H     -0.014804000000  -2.365385000000   2.475149000000 AA   -0.027975505548  -4.469929829154   4.677353727491 Bohr   0.0
[INPUT] 32 H      0.284174000000  -2.497206000000  -2.477327000000 AA    0.537011031722  -4.719035416621  -4.681469550990 Bohr   0.0
[INPUT] 33 H      0.033731000000  -4.845086000000   2.518367000000 AA    0.063742351908  -9.155885589964   4.759023911143 Bohr   0.0
[INPUT] 34 H      0.040696000000  -4.804747000000  -2.567693000000 AA    0.076904294365  -9.079655927826  -4.852236541963 Bohr   0.0
[INPUT] 35 H      0.141594000000  -6.876894000000   1.370098000000 AA    0.267573880882 -12.995446247665   2.589109983814 Bohr   0.0
[INPUT] 36 H     -0.093924000000  -6.866327000000  -1.210096000000 AA   -0.177490636524 -12.975477511706  -2.286750024432 Bohr   0.0
[INPUT] ---------------- BASIS SET ---------------- 
[INPUT] l, kappa, [nprim/nctr], expnt,             c_1 c_2 ...
[INPUT] H
[INPUT] 0    0    [3    /1   ]  3.42525091        0.15432897
                                0.62391373        0.53532814
                                0.1688554         0.44463454
[INPUT] C
[INPUT] 0    0    [3    /1   ]  71.616837         0.15432897
                                13.045096         0.53532814
                                3.5305122         0.44463454
[INPUT] 0    0    [3    /1   ]  2.9412494         -0.09996723
                                0.6834831         0.39951283
                                0.2222899         0.70011547
[INPUT] 1    0    [3    /1   ]  2.9412494         0.15591627
                                0.6834831         0.60768372
                                0.2222899         0.39195739

nuclear repulsion = 1509.25770026479
number of shells = 80
number of NR pGTOs = 372
number of NR cGTOs = 124
basis = sto3g
ecp = {}
CPU time:     73699.03
atom C rad-grids = 99, ang-grids = [ 50  50  50  50  50  50  50  50  50  50  50  50  50  50  50  50  50  50
  50  50  50  50  50  50  50  50  50  50  50  50  50  86  86  86  86  86
  86  86  86  86  86  86  86 434 434 434 434 434 434 434 434 434 590 590
 590 590 590 590 590 590 590 590 590 590 590 590 590 590 590 590 590 590
 590 590 590 590 590 590 590 434 434 434 434 434 434 434 434 434 434 434
 434 434 434 434 434 434 434 434 434]
atom H rad-grids = 99, ang-grids = [ 50  50  50  50  50  50  50  50  50  50  50  50  50  50  50  50  50  50
  50  50  50  50  50  50  50  50  50  50  86  86  86  86  86  86  86 434
 434 434 434 434 434 434 434 590 590 590 590 590 590 590 590 590 590 590
 590 590 590 590 590 590 590 590 590 590 590 590 590 590 590 434 434 434
 434 434 434 434 434 434 434 434 434 434 434 434 434 434 434 434 434 434
 434 434 434 434 434 434 434 434 434]
tot_boxes 5270, boxes in each direction [ 8 29 15]
Padding 0 grids
tot grids = 1157832


******** <class 'pyscf.dft.rks.RKS'> ********
method = RKS
initial guess = minao
damping factor = 0
level_shift factor = 0
DIIS = <class 'pyscf.scf.diis.CDIIS'>
diis_start_cycle = 1
diis_space = 8
SCF conv_tol = 1e-10
SCF conv_tol_grad = None
SCF max_cycles = 50
direct_scf = True
direct_scf_tol = 1e-13
chkfile to save SCF result = /home/saade/mlelec/tutorials/tmp8e23uu8a
max_memory 4000 MB (current use 690 MB)
XC library pyscf.dft.libxc version 6.1.0
    S. Lehtola, C. Steigemann, M. J.T. Oliveira, and M. A.L. Marques.,  SoftwareX 7, 1–5 (2018)
XC functionals = b3lypg
    P. J. Stephens, F. J. Devlin, C. F. Chabalowski, and M. J. Frisch.,  J. Phys. Chem. 98, 11623 (1994)
radial grids: 
    Treutler-Ahlrichs [JCP 102, 346 (1995); DOI:10.1063/1.469408] (M4) radial grids
    
becke partition: Becke, JCP 88, 2547 (1988); DOI:10.1063/1.454033
pruning grids: <function nwchem_prune at 0x7f9db5616ca0>
grids dens level: 3
symmetrized grids: False
atomic radii adjust function: <function treutler_atomic_radii_adjust at 0x7f9db5617380>
User specified grid scheme (99, 590)
small_rho_cutoff = 1e-07
Set gradient conv threshold to 1e-05
Initial guess from minao.
nelec by numeric integration = 145.27415393127768
    CPU time for vxc     36.74 sec, wall time     15.46 sec
E1 = -4118.338963160411  Ecoul = 1893.3287765033815  Exc = -126.33249531474883
init E= -842.084981706986
cond(S) = 23.326353403455172
    CPU time for initialize scf     46.80 sec, wall time     17.86 sec
  HOMO = -0.19585712703293  LUMO = -0.164042758691022
  mo_energy =
[-1.01506936e+01 -1.01351010e+01 -1.01324760e+01 -1.01306315e+01
 -1.01286882e+01 -1.01258235e+01 -1.01233847e+01 -1.01201405e+01
 -1.01152101e+01 -1.01144176e+01 -1.01100705e+01 -1.01094940e+01
 -1.01054849e+01 -1.00998047e+01 -1.00931598e+01 -1.00915788e+01
 -1.00897752e+01 -1.00867612e+01 -1.00846794e+01 -1.00837135e+01
 -1.00729240e+01 -1.00705168e+01 -1.11267974e+00 -1.09233377e+00
 -1.05223453e+00 -1.02232167e+00 -9.56590513e-01 -9.49881017e-01
 -9.23784052e-01 -9.06053079e-01 -8.76839309e-01 -8.38197042e-01
 -8.00359904e-01 -7.83666086e-01 -7.24726454e-01 -7.16218454e-01
 -7.06884923e-01 -6.79838453e-01 -6.68715609e-01 -6.55021395e-01
 -6.15233381e-01 -6.00183022e-01 -5.91906203e-01 -5.56544562e-01
 -5.43794150e-01 -5.36638261e-01 -5.25434089e-01 -5.01366053e-01
 -4.94929749e-01 -4.92765422e-01 -4.86085656e-01 -4.82147563e-01
 -4.74788356e-01 -4.62484388e-01 -4.55587655e-01 -4.36751204e-01
 -4.23730009e-01 -4.22720266e-01 -4.06689315e-01 -3.95574586e-01
 -3.88155469e-01 -3.76370591e-01 -3.58619836e-01 -3.53808069e-01
 -3.46274463e-01 -3.36972583e-01 -3.20457040e-01 -3.16128249e-01
 -3.07941980e-01 -2.94758049e-01 -2.75689936e-01 -2.39956692e-01
 -1.95857127e-01 -1.64042759e-01 -1.08012678e-01 -5.66481248e-02
 -5.14823068e-02 -2.61401655e-02  6.86898236e-03  1.80555590e-02
  5.89267518e-02  9.91099756e-02  1.18960891e-01  1.29959120e-01
  1.54269403e-01  1.62945026e-01  1.78990666e-01  1.86395196e-01
  1.87063872e-01  1.94086836e-01  2.18674417e-01  2.30178270e-01
  2.34379411e-01  2.43218154e-01  2.59587523e-01  2.65388420e-01
  2.94430336e-01  3.05333562e-01  3.08839571e-01  3.26271602e-01
  3.56734203e-01  3.74483247e-01  3.89907165e-01  4.04629963e-01
  4.17340182e-01  4.33959668e-01  4.57509466e-01  4.72686433e-01
  4.95711907e-01  5.08479199e-01  5.13143223e-01  5.30202900e-01
  5.65925641e-01  5.71600469e-01  5.95790517e-01  6.10921991e-01
  6.33212043e-01  6.79218343e-01  6.88060754e-01  7.43695380e-01
  7.71415063e-01  8.04639846e-01  8.61322904e-01  8.77765569e-01]
nelec by numeric integration = 146.00000044736544
    CPU time for vxc     37.94 sec, wall time     15.77 sec
E1 = -4133.114762057173  Ecoul = 1913.1300360321968  Exc = -124.93466836366494
cycle= 1 E= -835.661694123849  delta_E= 6.42  |g|= 0.288  |ddm|= 9.37
    CPU time for cycle= 1     38.31 sec, wall time     15.84 sec
  HOMO = -0.069366636418484  LUMO = -0.0052266654861578
  mo_energy =
[-1.00789417e+01 -1.00162036e+01 -1.00113060e+01 -1.00086764e+01
 -1.00039320e+01 -1.00019720e+01 -1.00016985e+01 -9.99890774e+00
 -9.99826298e+00 -9.99765681e+00 -9.98976476e+00 -9.98109834e+00
 -9.98030142e+00 -9.97974766e+00 -9.97246405e+00 -9.96735930e+00
 -9.96553417e+00 -9.96210328e+00 -9.95972814e+00 -9.95121460e+00
 -9.92613590e+00 -9.91526600e+00 -8.37966438e-01 -8.31544211e-01
 -8.15772027e-01 -7.73350939e-01 -7.54101164e-01 -7.36960596e-01
 -7.11757073e-01 -7.09577088e-01 -6.90289621e-01 -6.61747890e-01
 -6.33673995e-01 -6.15982968e-01 -5.81522287e-01 -5.76513036e-01
 -5.51942662e-01 -5.41815073e-01 -5.34909642e-01 -5.24058428e-01
 -4.90420426e-01 -4.84588861e-01 -4.74329801e-01 -4.39879206e-01
 -4.30273861e-01 -4.13558710e-01 -4.07737836e-01 -4.03223238e-01
 -3.93860906e-01 -3.90689303e-01 -3.75358830e-01 -3.60947935e-01
 -3.58568334e-01 -3.47215382e-01 -3.40562243e-01 -3.36066738e-01
 -3.24269167e-01 -3.11911160e-01 -2.98736761e-01 -2.90330963e-01
 -2.78681699e-01 -2.73662246e-01 -2.57143916e-01 -2.50740903e-01
 -2.32533418e-01 -2.28502388e-01 -2.12162678e-01 -2.00595849e-01
 -1.98273936e-01 -1.89875664e-01 -1.72699775e-01 -1.27227594e-01
 -6.93666364e-02 -5.22666549e-03  3.39839085e-02  8.60862597e-02
  1.08240891e-01  1.32603530e-01  1.59530020e-01  1.71844320e-01
  2.28140442e-01  2.60284300e-01  2.77321080e-01  2.84633469e-01
  2.92446841e-01  3.09701269e-01  3.19362284e-01  3.28197171e-01
  3.35879311e-01  3.46533703e-01  3.61456114e-01  3.84308948e-01
  3.87864857e-01  3.97218355e-01  4.14225583e-01  4.30901664e-01
  4.33497954e-01  4.45656761e-01  4.57274531e-01  4.82743949e-01
  5.08058707e-01  5.18888423e-01  5.31623117e-01  5.46648080e-01
  5.67880378e-01  5.91973471e-01  6.11721000e-01  6.19772627e-01
  6.30880470e-01  6.57846800e-01  6.75217173e-01  6.88354707e-01
  7.28183161e-01  7.40836882e-01  7.49522238e-01  7.64493803e-01
  7.99944353e-01  8.63313565e-01  8.76082060e-01  8.96245929e-01
  9.23148842e-01  9.62219591e-01  1.04341725e+00  1.08542231e+00]
nelec by numeric integration = 146.0000003978092
    CPU time for vxc     38.26 sec, wall time     15.78 sec
E1 = -4127.05394096155  Ecoul = 1906.9783641640238  Exc = -124.79787911374947
cycle= 2 E= -835.615755646484  delta_E= 0.0459  |g|= 0.443  |ddm|= 1.26
    CPU time for cycle= 2     38.61 sec, wall time     15.84 sec
  HOMO = -0.0957230445911963  LUMO = -0.0287471086770596
  mo_energy =
[-10.04044304 -10.03978582 -10.038806   -10.03454449 -10.02959219
 -10.0237813  -10.02044503 -10.00953244 -10.00641198 -10.00588223
 -10.00582721  -9.99994268  -9.99837261  -9.99713582  -9.99514922
  -9.9944797   -9.99333471  -9.99055326  -9.97971645  -9.97868892
  -9.97205546  -9.96299559  -0.86697251  -0.84715512  -0.82403163
  -0.80539746  -0.75712422  -0.75060846  -0.73589292  -0.72265763
  -0.6989153   -0.66742732  -0.65322098  -0.62701933  -0.58752389
  -0.58374559  -0.57737972  -0.55375299  -0.54099507  -0.53114871
  -0.50411474  -0.49149808  -0.48248674  -0.4557543   -0.44167802
  -0.42806894  -0.42546548  -0.40544946  -0.40351637  -0.39319202
  -0.39068504  -0.3855662   -0.37594441  -0.3684419   -0.34870989
  -0.33786273  -0.33279006  -0.32655576  -0.31846448  -0.30477028
  -0.29696955  -0.29097615  -0.26693956  -0.25741579  -0.24367226
  -0.24064788  -0.23086653  -0.22011189  -0.21716641  -0.20552324
  -0.17454134  -0.13618612  -0.09572304  -0.02874711   0.02939531
   0.08246682   0.08883349   0.1162798    0.15535244   0.16332917
   0.20319774   0.23222643   0.25159649   0.27097736   0.29638488
   0.30698226   0.31060235   0.31905945   0.32715328   0.33619094
   0.35269134   0.3660094    0.3727746    0.38235603   0.40278965
   0.41163187   0.4283891    0.438614     0.44885701   0.46173465
   0.50137856   0.51424794   0.52704585   0.5465438    0.55608321
   0.57460725   0.58926624   0.61191256   0.63486897   0.65458671
   0.66347963   0.66999176   0.70980809   0.71539648   0.73825702
   0.75368574   0.78732456   0.81695346   0.82787081   0.90624084
   0.91456123   0.94723516   1.01362524   1.03528072]
nelec by numeric integration = 146.00000043679952
    CPU time for vxc     38.08 sec, wall time     16.06 sec
E1 = -4130.347048860916  Ecoul = 1910.2522988225367  Exc = -124.82222372093445
cycle= 3 E= -835.659273494522  delta_E= -0.0435  |g|= 0.299  |ddm|= 1.35
    CPU time for cycle= 3     38.52 sec, wall time     16.14 sec
  HOMO = -0.0941521599980864  LUMO = -0.0330876222414392
  mo_energy =
[-10.03595872 -10.0319215  -10.02589565 -10.02398167 -10.02347583
 -10.02342576 -10.02294742 -10.02099097 -10.01783012 -10.01616787
 -10.01383232 -10.01281461 -10.01261179 -10.01194466 -10.00839915
 -10.00618965 -10.0039977   -9.99932757  -9.99837796  -9.99664932
  -9.99335467  -9.99303467  -0.86683623  -0.85577135  -0.82590805
  -0.808722    -0.76310659  -0.76011044  -0.73871024  -0.72592671
  -0.70458238  -0.67697184  -0.64795924  -0.63668038  -0.5921167
  -0.585599    -0.57680257  -0.55930874  -0.54793047  -0.53570878
  -0.50947051  -0.49239277  -0.4886025   -0.45962102  -0.44611869
  -0.43628619  -0.4317457   -0.40805142  -0.40614671  -0.39860034
  -0.39074004  -0.38833927  -0.37803434  -0.37147893  -0.35721056
  -0.33983024  -0.33341098  -0.3304237   -0.32081609  -0.307644
  -0.29984308  -0.29362473  -0.27276256  -0.2619801   -0.25343786
  -0.25137954  -0.23586099  -0.22242674  -0.21104844  -0.2097775
  -0.18240698  -0.14353528  -0.09415216  -0.03308762   0.02324314
   0.0766617    0.08541712   0.11073086   0.14404139   0.15640861
   0.20127008   0.23897615   0.26013983   0.26831644   0.29351901
   0.29941847   0.30878531   0.31554278   0.32532103   0.33175229
   0.35275412   0.36243063   0.36867187   0.38304494   0.39843707
   0.40467901   0.4279275    0.44409182   0.44514588   0.45615554
   0.49320822   0.50448146   0.5207949    0.53185822   0.54623653
   0.57823482   0.58879853   0.60672908   0.63097309   0.64749498
   0.65457483   0.66446675   0.70659275   0.7129156    0.73618479
   0.74393225   0.77125637   0.82664638   0.8309765    0.88669325
   0.90302585   0.94627382   1.01006209   1.02658272]
nelec by numeric integration = 146.0000004231559
    CPU time for vxc     38.51 sec, wall time     15.88 sec
E1 = -4129.866241758796  Ecoul = 1909.7495333740333  Exc = -124.83312505841106
cycle= 4 E= -835.692133178381  delta_E= -0.0329  |g|= 0.111  |ddm|= 0.764
    CPU time for cycle= 4     38.94 sec, wall time     15.95 sec
  HOMO = -0.0954792618946592  LUMO = -0.0344072708883713
  mo_energy =
[-10.03695699 -10.03146994 -10.03026635 -10.02956802 -10.02884557
 -10.02199324 -10.02145789 -10.02104133 -10.01892564 -10.01883672
 -10.01703629 -10.01673591 -10.01571795 -10.01513691 -10.01049265
 -10.0096495  -10.00827285 -10.00556446 -10.00534516 -10.00477198
  -9.99913269  -9.98862512  -0.8667259   -0.85605089  -0.83105943
  -0.81059624  -0.76595336  -0.76052392  -0.73908471  -0.72771515
  -0.70569544  -0.67757637  -0.65191286  -0.63654951  -0.59443843
  -0.58878229  -0.57775402  -0.56027534  -0.5480292   -0.53694787
  -0.50924723  -0.49428959  -0.49075699  -0.46047949  -0.44534038
  -0.4351911   -0.43213772  -0.40940846  -0.40691002  -0.39941502
  -0.39232708  -0.38804177  -0.3798061   -0.37361895  -0.35746371
  -0.34204881  -0.33696036  -0.33366362  -0.32441713  -0.30982391
  -0.30168938  -0.29558854  -0.27389126  -0.26540356  -0.25273752
  -0.25070963  -0.23656825  -0.22441171  -0.21612344  -0.2118012
  -0.18516437  -0.14543454  -0.09547926  -0.03440727   0.02067519
   0.07342979   0.08433066   0.10893552   0.143549     0.15411602
   0.19940724   0.23550462   0.25585709   0.26645882   0.29139339
   0.30018851   0.30498479   0.31267147   0.32354822   0.33042028
   0.3483285    0.36325206   0.36809968   0.3815821    0.39926009
   0.40517477   0.42567752   0.44181052   0.44256913   0.4538906
   0.49419587   0.50562268   0.51946991   0.53538316   0.54848508
   0.57374608   0.59085986   0.60390041   0.62933645   0.6439813
   0.65287109   0.65895488   0.70831056   0.7115126    0.73556092
   0.73936616   0.77380866   0.82410108   0.83024308   0.88949911
   0.89593387   0.94088883   1.00970966   1.02551477]
nelec by numeric integration = 146.00000042611504
    CPU time for vxc     38.15 sec, wall time     15.76 sec
E1 = -4130.0573453749585  Ecoul = 1909.9394890868996  Exc = -124.83628198719877
cycle= 5 E= -835.696438010465  delta_E= -0.0043  |g|= 0.0288  |ddm|= 0.225
    CPU time for cycle= 5     38.57 sec, wall time     15.83 sec
  HOMO = -0.09633259434394  LUMO = -0.0340297750796829
  mo_energy =
[-10.03411013 -10.03316017 -10.0309394  -10.02930688 -10.02450636
 -10.02112582 -10.01734422 -10.0170045  -10.0166682  -10.01490465
 -10.01443671 -10.01396156 -10.01355857 -10.0131388  -10.01279134
 -10.00949317 -10.0091766  -10.00855156 -10.007307   -10.00211857
  -9.99933057  -9.99536217  -0.86611975  -0.85596803  -0.82888352
  -0.80962268  -0.76458158  -0.75968803  -0.73976883  -0.7275612
  -0.70508467  -0.67713767  -0.65117986  -0.63667073  -0.59378854
  -0.58783651  -0.57788069  -0.55951712  -0.54769562  -0.536586
  -0.50851242  -0.49414681  -0.48988791  -0.45973662  -0.44588856
  -0.43453148  -0.43126123  -0.40916271  -0.40638947  -0.39897527
  -0.39132226  -0.3889037   -0.37986158  -0.37318394  -0.35680397
  -0.3412458   -0.3357682   -0.33320974  -0.32355446  -0.30953802
  -0.301245    -0.29589373  -0.27309956  -0.26466283  -0.25294186
  -0.25103523  -0.23624078  -0.22436258  -0.21641585  -0.2120185
  -0.18440705  -0.14539492  -0.09633259  -0.03402978   0.02109889
   0.07435482   0.0837806    0.1096395    0.14418818   0.15445421
   0.2001019    0.23564984   0.25568357   0.26770939   0.29171475
   0.30047903   0.30720608   0.31258953   0.3233974    0.33105791
   0.34977013   0.36216224   0.36794843   0.38075258   0.39859567
   0.40485075   0.42611457   0.44243895   0.44288928   0.45457118
   0.49339712   0.50640732   0.51967024   0.53538023   0.54910993
   0.57445866   0.58922076   0.60503089   0.63046555   0.64600617
   0.65311559   0.66030089   0.70695826   0.71097935   0.73456811
   0.74209554   0.77468634   0.82304667   0.82872186   0.89142572
   0.89975433   0.94195296   1.01214119   1.02796363]
nelec by numeric integration = 146.00000042916088
    CPU time for vxc     38.11 sec, wall time     15.88 sec
E1 = -4130.0845109306065  Ecoul = 1909.9636704220306  Exc = -124.83354097698731
cycle= 6 E= -835.696681220771  delta_E= -0.000243  |g|= 0.0137  |ddm|= 0.061
    CPU time for cycle= 6     38.46 sec, wall time     15.93 sec
  HOMO = -0.0957887725923526  LUMO = -0.0333117902406498
  mo_energy =
[-10.03458286 -10.03085708 -10.0289299  -10.02866043 -10.02519976
 -10.02127198 -10.01745949 -10.01667838 -10.01645498 -10.01493898
 -10.01482745 -10.01442808 -10.01430902 -10.0136309  -10.01005745
 -10.00799488 -10.0068221  -10.00675223 -10.00561816 -10.00174778
  -9.99792426  -9.99396235  -0.86558521  -0.8552317   -0.82877197
  -0.80926577  -0.76416502  -0.75940471  -0.73894377  -0.72682996
  -0.70468543  -0.67653532  -0.65072455  -0.63609424  -0.59322795
  -0.58745133  -0.57735654  -0.55922481  -0.54723982  -0.53620521
  -0.50830943  -0.49347916  -0.48959953  -0.45951198  -0.44517099
  -0.43436332  -0.43110283  -0.40888898  -0.40609786  -0.39867583
  -0.39121011  -0.3882188   -0.37920799  -0.37269096  -0.35640329
  -0.34086214  -0.33550929  -0.33302209  -0.32333095  -0.30898495
  -0.30079441  -0.29518443  -0.27282751  -0.26410817  -0.25215196
  -0.25043897  -0.23592623  -0.22382038  -0.21563779  -0.21115596
  -0.18401348  -0.14474355  -0.09578877  -0.03331179   0.02184914
   0.07480771   0.08474578   0.11001714   0.14469732   0.15514045
   0.20048847   0.23622801   0.25644943   0.26769126   0.29231388
   0.3009159    0.30706915   0.31313598   0.32399017   0.33139638
   0.34985516   0.36313133   0.36853566   0.38161022   0.39946123
   0.40558283   0.42646762   0.44280953   0.44320473   0.45475948
   0.49445437   0.50658633   0.52014009   0.53575018   0.54918431
   0.57504631   0.59002207   0.60537562   0.63070197   0.64610583
   0.65399475   0.66060744   0.70796595   0.71195286   0.73585644
   0.74191468   0.77483883   0.82421763   0.82994484   0.89132933
   0.89946293   0.94244754   1.01194695   1.02766999]
nelec by numeric integration = 146.00000042609747
    CPU time for vxc     38.33 sec, wall time     15.87 sec
E1 = -4130.01138597204  Ecoul = 1909.8896416023128  Exc = -124.83270222080337
cycle= 7 E= -835.696746325738  delta_E= -6.51e-05  |g|= 0.00362  |ddm|= 0.0241
    CPU time for cycle= 7     38.78 sec, wall time     15.95 sec
  HOMO = -0.0957426317945822  LUMO = -0.0332290210624207
  mo_energy =
[-10.03467354 -10.03095981 -10.02895187 -10.02864896 -10.02540722
 -10.0212524  -10.01799108 -10.0164193  -10.01615323 -10.01489553
 -10.01447818 -10.0144658  -10.01433362 -10.01351021 -10.01005118
 -10.00711311 -10.00702885 -10.00697517 -10.00609644 -10.00190373
  -9.99828747  -9.99318871  -0.86561395  -0.85528041  -0.82873237
  -0.8092619   -0.76417164  -0.75946491  -0.73889363  -0.72683887
  -0.70463333  -0.67658044  -0.65065884  -0.63604833  -0.59322889
  -0.58742902  -0.57731478  -0.55925054  -0.54726897  -0.53623364
  -0.50833795  -0.49351406  -0.48955513  -0.45947099  -0.44514736
  -0.43436476  -0.43113676  -0.40881701  -0.40610811  -0.39872063
  -0.39118772  -0.38813045  -0.37918899  -0.37268536  -0.35647066
  -0.34084617  -0.33540069  -0.33291876  -0.32328219  -0.30898461
  -0.30078647  -0.29518639  -0.27290494  -0.26410899  -0.25216576
  -0.25046791  -0.23591977  -0.22375354  -0.21562458  -0.21118754
  -0.18394172  -0.14476099  -0.09574263  -0.03322902   0.02186884
   0.07485483   0.08473127   0.11008515   0.14464937   0.15512617
   0.20049485   0.23626026   0.25645707   0.26771369   0.29230237
   0.30082781   0.3071078    0.3131444    0.32398094   0.33139338
   0.34993309   0.36321226   0.36854544   0.38162045   0.39946175
   0.40555476   0.4265664    0.44293635   0.44322055   0.45488591
   0.49440515   0.50650623   0.52023003   0.53561254   0.54909206
   0.5751154    0.59022867   0.6053789    0.63072689   0.6461232
   0.65396915   0.66069622   0.70809776   0.711951     0.73576809
   0.74191867   0.77476528   0.82426871   0.82999933   0.89117794
   0.89947549   0.94246265   1.01183441   1.02760656]
nelec by numeric integration = 146.00000042696337
    CPU time for vxc     38.43 sec, wall time     15.88 sec
E1 = -4130.015417656176  Ecoul = 1909.8937021533118  Exc = -124.83273530683795
cycle= 8 E= -835.69675054491  delta_E= -4.22e-06  |g|= 0.0011  |ddm|= 0.00696
    CPU time for cycle= 8     38.94 sec, wall time     15.96 sec
  HOMO = -0.0957811906322467  LUMO = -0.0332353803000625
  mo_energy =
[-10.03481145 -10.03107309 -10.02903744 -10.02854078 -10.0254483
 -10.0211448  -10.01802383 -10.01647091 -10.01622906 -10.01498116
 -10.01452541 -10.0143513  -10.01428046 -10.01345524 -10.01020326
 -10.00721314 -10.00717273 -10.00713223 -10.00593882 -10.00179365
  -9.99817287  -9.99342274  -0.86564745  -0.85530745  -0.82873596
  -0.80931606  -0.76416658  -0.7594497   -0.73892914  -0.72687192
  -0.70467487  -0.67658317  -0.65069652  -0.63606513  -0.59324711
  -0.58744897  -0.57735409  -0.55927465  -0.54726299  -0.53621812
  -0.50835684  -0.49350988  -0.48959689  -0.4595028   -0.44518406
  -0.43437231  -0.43114341  -0.4088194   -0.40611429  -0.3987244
  -0.39120771  -0.38818118  -0.37922437  -0.37271789  -0.35646718
  -0.34085516  -0.33542861  -0.33294038  -0.32328315  -0.30900152
  -0.30081051  -0.29519365  -0.27292191  -0.26410862  -0.25218532
  -0.25048287  -0.23593697  -0.22379771  -0.21555653  -0.21120955
  -0.18397378  -0.14478152  -0.09578119  -0.03323538   0.02185668
   0.07482493   0.08470523   0.11003552   0.14465702   0.15511458
   0.20044827   0.23626237   0.25649071   0.26770953   0.29230923
   0.30083275   0.30707986   0.31315904   0.32399477   0.33136431
   0.34995437   0.36316005   0.3685104    0.38163156   0.39943138
   0.40552983   0.426548     0.4428971    0.44318475   0.45484102
   0.49435141   0.50651355   0.52020035   0.53564645   0.54911088
   0.57510371   0.59015205   0.60536739   0.63072871   0.64611037
   0.65390859   0.66066679   0.70801662   0.71192828   0.73573017
   0.74187845   0.77480854   0.82422083   0.82992691   0.89121697
   0.89943956   0.94253045   1.01180215   1.02754825]
nelec by numeric integration = 146.0000004267463
    CPU time for vxc     37.95 sec, wall time     15.70 sec
E1 = -4130.017587674212  Ecoul = 1909.8959328525666  Exc = -124.83279632685775
cycle= 9 E= -835.696750883711  delta_E= -3.39e-07  |g|= 0.000569  |ddm|= 0.00233
    CPU time for cycle= 9     38.41 sec, wall time     15.77 sec
  HOMO = -0.0957990750652977  LUMO = -0.0332437833994791
  mo_energy =
[-10.03476563 -10.03102598 -10.02904136 -10.02861732 -10.02542286
 -10.02121194 -10.01801901 -10.01649772 -10.01624098 -10.01492028
 -10.01454339 -10.0144188  -10.01434325 -10.01350423 -10.01015222
 -10.00728283 -10.00711189 -10.00707437 -10.006003   -10.00183189
  -9.99826911  -9.99339598  -0.86565563  -0.85531969  -0.82875193
  -0.80930653  -0.76417965  -0.75947869  -0.73893549  -0.72687292
  -0.7046764   -0.67659626  -0.65070603  -0.63607656  -0.59325403
  -0.58745435  -0.57735322  -0.5592776   -0.54727952  -0.53623429
  -0.50836872  -0.4935203   -0.48959382  -0.45951057  -0.44518173
  -0.43438345  -0.43115463  -0.40882956  -0.40612774  -0.39873007
  -0.39121506  -0.38817883  -0.37922205  -0.37271874  -0.35648629
  -0.34086248  -0.33543637  -0.33294738  -0.32329524  -0.30899968
  -0.30081056  -0.29519894  -0.27292135  -0.26411917  -0.25219007
  -0.25049062  -0.23594066  -0.22380307  -0.2155748   -0.21121118
  -0.18397903  -0.14479291  -0.09579908  -0.03324378   0.02185021
   0.0748234    0.08470019   0.11003172   0.14463464   0.15510567
   0.20045674   0.2362591    0.25647405   0.26770474   0.29228999
   0.30082309   0.30707783   0.31315649   0.32398714   0.33136248
   0.34993939   0.36316084   0.36851762   0.38162827   0.39942855
   0.40553289   0.42653795   0.44289282   0.44318563   0.4548384
   0.4943697    0.50649267   0.52019454   0.53561928   0.54908814
   0.57508292   0.59014928   0.6053538    0.63070438   0.64609517
   0.65391653   0.66065337   0.70802646   0.71191993   0.73573544
   0.74188025   0.77476657   0.82421801   0.82993304   0.89117745
   0.89943857   0.94247993   1.0118019    1.02756295]
nelec by numeric integration = 146.00000042687336
    CPU time for vxc     37.68 sec, wall time     15.63 sec
E1 = -4130.018207368435  Ecoul = 1909.8965726389554  Exc = -124.83281652694829
cycle= 10 E= -835.696750991635  delta_E= -1.08e-07  |g|= 0.000187  |ddm|= 0.00102
    CPU time for cycle= 10     38.22 sec, wall time     15.71 sec
  HOMO = -0.0958041965743531  LUMO = -0.0332477975946599
  mo_energy =
[-10.03476919 -10.03103455 -10.02904438 -10.02863817 -10.0254288
 -10.02120199 -10.0179983  -10.01650278 -10.01624551 -10.01496426
 -10.01454867 -10.01441409 -10.01434054 -10.01352282 -10.01016108
 -10.00728189 -10.00711451 -10.00710413 -10.00602014 -10.00185157
  -9.99821851  -9.99340424  -0.86565651  -0.85532032  -0.82876204
  -0.80931615  -0.76418966  -0.75947067  -0.73894078  -0.7268782
  -0.70468049  -0.67659413  -0.65071044  -0.63607775  -0.59325857
  -0.58745974  -0.57735749  -0.55927892  -0.54728101  -0.53623544
  -0.50836478  -0.49352624  -0.48959799  -0.45951084  -0.44518667
  -0.43438351  -0.43115478  -0.40883802  -0.40612849  -0.39872413
  -0.39121592  -0.38818541  -0.3792289   -0.37272365  -0.35648427
  -0.3408678   -0.33544354  -0.33295418  -0.32330039  -0.30900552
  -0.3008146   -0.29520294  -0.27291873  -0.26412786  -0.2521923
  -0.25049129  -0.23594057  -0.22380646  -0.21559055  -0.21121552
  -0.18398556  -0.14479439  -0.0958042   -0.0332478    0.02184703
   0.07481604   0.08469353   0.11003053   0.14463921   0.15510007
   0.20044885   0.23624605   0.25646058   0.26769789   0.29228545
   0.30082631   0.30707877   0.31314745   0.32398233   0.3313605
   0.34992979   0.36315548   0.36851496   0.38161653   0.39942129
   0.40552854   0.42653082   0.44288982   0.44318527   0.45483559
   0.49436054   0.50650108   0.52018756   0.53563402   0.54909867
   0.57507711   0.59014426   0.60535124   0.63070479   0.64609828
   0.65391666   0.66065169   0.70801894   0.7119148    0.73572783
   0.74187776   0.77477621   0.82420669   0.82992386   0.8911878
   0.89943499   0.94246244   1.01180088   1.02755525]
nelec by numeric integration = 146.00000042686682
    CPU time for vxc     38.21 sec, wall time     15.78 sec
E1 = -4130.018804065061  Ecoul = 1909.8971747424998  Exc = -124.83282194663818
cycle= 11 E= -835.696751004406  delta_E= -1.28e-08  |g|= 7.06e-05  |ddm|= 0.000406
    CPU time for cycle= 11     38.59 sec, wall time     15.84 sec
  HOMO = -0.0958040271899383  LUMO = -0.0332458633440741
  mo_energy =
[-10.03477483 -10.03103231 -10.02904697 -10.02861975 -10.02542787
 -10.02120379 -10.0180007  -10.01649475 -10.01623974 -10.01495882
 -10.01454    -10.01441113 -10.01433769 -10.01350963 -10.01016441
 -10.00728792 -10.0071082  -10.00709817 -10.00601927 -10.00183771
  -9.99823614  -9.99339479  -0.86565663  -0.85531922  -0.82875619
  -0.80931422  -0.76418399  -0.75947208  -0.73893984  -0.72687547
  -0.70467735  -0.67659318  -0.65070984  -0.63607509  -0.59325491
  -0.5874567   -0.57735806  -0.55927786  -0.54727777  -0.53623387
  -0.50836531  -0.49352312  -0.48959531  -0.45950939  -0.44518398
  -0.43438307  -0.43115413  -0.40883291  -0.40612699  -0.39872602
  -0.39121644  -0.38818407  -0.37922663  -0.37272234  -0.35648335
  -0.34086446  -0.33543966  -0.33295248  -0.32329642  -0.30900521
  -0.30081405  -0.29520184  -0.27291927  -0.26412305  -0.25219023
  -0.25049009  -0.23594198  -0.2238052   -0.2155873   -0.21121363
  -0.18398017  -0.14479384  -0.09580403  -0.03324586   0.02184965
   0.07482131   0.08469536   0.1100324    0.14463926   0.15510355
   0.20045013   0.23624772   0.25646295   0.26769888   0.292289
   0.30082644   0.30708184   0.31314964   0.32398251   0.33136013
   0.34993509   0.36315914   0.36851501   0.38161987   0.39942658
   0.40552834   0.42653631   0.44288869   0.44318442   0.45484001
   0.49436418   0.50649998   0.52019337   0.53563102   0.54909601
   0.57508033   0.59014813   0.60535472   0.6307055    0.6460991
   0.65391637   0.66065378   0.70802214   0.7119159    0.73572996
   0.7418816    0.77477509   0.82420727   0.82992471   0.89118764
   0.89943926   0.94247371   1.01180047   1.02755455]
nelec by numeric integration = 146.00000042686813
    CPU time for vxc     37.96 sec, wall time     15.66 sec
E1 = -4130.018631165714  Ecoul = 1909.8969947012472  Exc = -124.83281480628374
cycle= 12 E= -835.696751005958  delta_E= -1.55e-09  |g|= 3.15e-05  |ddm|= 0.000154
    CPU time for cycle= 12     38.49 sec, wall time     15.74 sec
  HOMO = -0.0958018850324605  LUMO = -0.0332435962757104
  mo_energy =
[-10.03476961 -10.03103217 -10.029043   -10.02862386 -10.02542455
 -10.02120029 -10.01800242 -10.01649683 -10.01624048 -10.01495123
 -10.01454286 -10.01440806 -10.01433593 -10.01351049 -10.01015765
 -10.00728154 -10.00710903 -10.00709431 -10.00601594 -10.00184463
  -9.99822701  -9.99339578  -0.86565421  -0.85531781  -0.82875626
  -0.80931198  -0.76418393  -0.75947001  -0.73893769  -0.72687471
  -0.70467731  -0.67659166  -0.65070833  -0.63607435  -0.5932546
  -0.58745618  -0.57735573  -0.55927656  -0.5472777   -0.53623327
  -0.50836383  -0.49352239  -0.48959474  -0.45950871  -0.44518321
  -0.43438132  -0.4311529   -0.40883356  -0.40612621  -0.39872518
  -0.39121446  -0.38818238  -0.37922508  -0.37272079  -0.35648244
  -0.34086384  -0.33543952  -0.33295109  -0.32329639  -0.30900314
  -0.30081229  -0.29520066  -0.27291881  -0.26412271  -0.25218895
  -0.25048848  -0.23593983  -0.22380406  -0.2155869   -0.21121187
  -0.18398115  -0.14479217  -0.09580189  -0.0332436    0.02185078
   0.07482049   0.08469759   0.11003272   0.14464081   0.15510433
   0.20045211   0.23624963   0.25646445   0.26770045   0.29228922
   0.30082731   0.30708053   0.31315019   0.32398403   0.33136218
   0.3499346    0.36315925   0.36851643   0.38162087   0.3994266
   0.40553181   0.42653489   0.44289079   0.44318541   0.45483883
   0.49436613   0.50650101   0.52019239   0.53563291   0.54909773
   0.57508093   0.59014818   0.60535463   0.63070721   0.64610022
   0.65391836   0.66065492   0.70802343   0.711918     0.73573198
   0.74188121   0.77477743   0.82421055   0.82992748   0.89118914
   0.89943904   0.94247215   1.01180261   1.02755795]
nelec by numeric integration = 146.0000004268642
    CPU time for vxc     38.04 sec, wall time     15.71 sec
E1 = -4130.018483317948  Ecoul = 1909.8968447784491  Exc = -124.83281273160561
cycle= 13 E= -835.696751006312  delta_E= -3.54e-10  |g|= 1.41e-05  |ddm|= 7.51e-05
    CPU time for cycle= 13     38.51 sec, wall time     15.78 sec
  HOMO = -0.0958026226838751  LUMO = -0.0332444374844555
  mo_energy =
[-10.03477117 -10.03103142 -10.02904357 -10.02862371 -10.02542626
 -10.02120194 -10.01800102 -10.01649682 -10.01624061 -10.01495412
 -10.01454403 -10.01440959 -10.01433656 -10.01351151 -10.01016113
 -10.00728305 -10.00710742 -10.00709775 -10.00601631 -10.00184142
  -9.99823051  -9.99339518  -0.86565501  -0.85531816  -0.82875669
  -0.80931286  -0.76418442  -0.75947082  -0.73893835  -0.72687513
  -0.70467734  -0.67659255  -0.65070874  -0.63607486  -0.59325507
  -0.58745656  -0.57735634  -0.55927724  -0.54727797  -0.53623357
  -0.50836437  -0.49352285  -0.48959519  -0.45950905  -0.44518355
  -0.43438201  -0.43115333  -0.40883356  -0.40612655  -0.39872538
  -0.39121515  -0.38818285  -0.37922586  -0.37272143  -0.3564827
  -0.34086441  -0.33543977  -0.3329517   -0.32329692  -0.30900383
  -0.30081291  -0.29520108  -0.27291876  -0.26412312  -0.25218956
  -0.25048919  -0.23594053  -0.22380432  -0.21558659  -0.21121267
  -0.18398097  -0.14479308  -0.09580262  -0.03324444   0.0218501
   0.0748206    0.08469652   0.11003267   0.1446401    0.15510377
   0.20045144   0.23624911   0.25646416   0.26769995   0.29228899
   0.3008269    0.30708053   0.31315001   0.32398358   0.33136153
   0.34993434   0.36315929   0.36851599   0.38162061   0.39942631
   0.40553026   0.42653536   0.4428903    0.44318536   0.45483893
   0.49436479   0.50650064   0.52019246   0.53563196   0.54909708
   0.57508072   0.59014835   0.60535451   0.63070637   0.64609935
   0.65391747   0.66065411   0.70802305   0.71191728   0.7357312
   0.74188092   0.7747764    0.82420966   0.8299268    0.89118851
   0.8994385    0.94247193   1.01180204   1.0275569 ]
nelec by numeric integration = 146.0000004268667
    CPU time for vxc     38.18 sec, wall time     15.71 sec
E1 = -4130.018520744383  Ecoul = 1909.8968834924513  Exc = -124.83281401924533
cycle= 14 E= -835.696751006384  delta_E= -7.23e-11  |g|= 6.3e-06  |ddm|= 2.79e-05
    CPU time for cycle= 14     38.59 sec, wall time     15.78 sec
  HOMO = -0.0958031223928918  LUMO = -0.0332446600784121
  mo_energy =
[-10.03477206 -10.03103235 -10.02904521 -10.02862361 -10.02542556
 -10.02120137 -10.01800207 -10.01649661 -10.01624058 -10.01495567
 -10.0145411  -10.01440941 -10.01433687 -10.01351084 -10.0101588
 -10.00728654 -10.00710885 -10.0070954  -10.00601809 -10.00184322
  -9.99822847  -9.99339626  -0.86565539  -0.85531867  -0.8287567
  -0.80931322  -0.76418427  -0.75947076  -0.73893884  -0.72687523
  -0.70467772  -0.67659209  -0.65070938  -0.63607473  -0.59325486
  -0.58745663  -0.57735688  -0.55927716  -0.54727791  -0.53623364
  -0.50836455  -0.4935229   -0.48959512  -0.45950924  -0.44518374
  -0.43438212  -0.4311536   -0.4088337   -0.40612675  -0.39872536
  -0.39121541  -0.38818342  -0.37922586  -0.37272162  -0.35648299
  -0.3408642   -0.33543998  -0.3329519   -0.32329649  -0.30900396
  -0.30081307  -0.29520114  -0.27291909  -0.26412311  -0.25218948
  -0.2504891   -0.23594066  -0.22380487  -0.21558725  -0.21121256
  -0.18398113  -0.14479278  -0.09580312  -0.03324466   0.02185038
   0.07482042   0.08469659   0.11003223   0.14464027   0.15510383
   0.20045103   0.23624859   0.25646352   0.26769956   0.2922888
   0.30082701   0.30708097   0.31314996   0.32398351   0.33136121
   0.34993466   0.36315882   0.36851588   0.38162027   0.39942617
   0.40553068   0.42653488   0.44288974   0.44318483   0.45483898
   0.4943655    0.50650062   0.52019233   0.53563255   0.54909716
   0.57508018   0.59014749   0.60535438   0.63070642   0.64609991
   0.65391772   0.66065436   0.70802255   0.71191697   0.73573101
   0.74188115   0.77477661   0.82420866   0.82992591   0.8911885
   0.89943901   0.94247184   1.01180135   1.0275561 ]
nelec by numeric integration = 146.00000042686654
    CPU time for vxc     38.37 sec, wall time     15.80 sec
E1 = -4130.01858896038  Ecoul = 1909.8969519744937  Exc = -124.83281428512998
Extra cycle  E= -835.696751006224  delta_E= 1.61e-10  |g|= 2.01e-05  |ddm|= 4.94e-05
    CPU time for scf_cycle    625.49 sec, wall time    255.78 sec
    CPU time for SCF    625.49 sec, wall time    255.78 sec
converged SCF energy = -835.696751006224
nelec by numeric integration = 146.00000042686654
    CPU time for vxc     38.10 sec, wall time     15.81 sec
 ** Mulliken pop  **
pop of  0 C 1s            1.99083
pop of  0 C 2s            1.14322
pop of  0 C 2px           0.98787
pop of  0 C 2py           0.95082
pop of  0 C 2pz           0.92627
pop of  1 C 1s            1.99066
pop of  1 C 2s            1.10436
pop of  1 C 2px           0.98025
pop of  1 C 2py           0.96552
pop of  1 C 2pz           0.96033
pop of  2 C 1s            1.99113
pop of  2 C 2s            1.18172
pop of  2 C 2px           0.94968
pop of  2 C 2py           0.95513
pop of  2 C 2pz           0.96241
pop of  3 C 1s            1.99126
pop of  3 C 2s            1.10108
pop of  3 C 2px           1.01377
pop of  3 C 2py           0.96441
pop of  3 C 2pz           0.98539
pop of  4 C 1s            1.99032
pop of  4 C 2s            1.06480
pop of  4 C 2px           1.03465
pop of  4 C 2py           0.99365
pop of  4 C 2pz           1.03879
pop of  5 C 1s            1.99114
pop of  5 C 2s            1.18854
pop of  5 C 2px           0.96540
pop of  5 C 2py           0.94390
pop of  5 C 2pz           0.99369
pop of  6 C 1s            1.99081
pop of  6 C 2s            1.03722
pop of  6 C 2px           0.99992
pop of  6 C 2py           1.01083
pop of  6 C 2pz           1.03238
pop of  7 C 1s            1.99083
pop of  7 C 2s            1.08032
pop of  7 C 2px           1.02342
pop of  7 C 2py           1.00002
pop of  7 C 2pz           1.01295
pop of  8 C 1s            1.99054
pop of  8 C 2s            1.04454
pop of  8 C 2px           1.01388
pop of  8 C 2py           1.00513
pop of  8 C 2pz           0.99301
pop of  9 C 1s            1.99132
pop of  9 C 2s            1.20710
pop of  9 C 2px           0.96168
pop of  9 C 2py           0.91667
pop of  9 C 2pz           0.90344
pop of  10 C 1s           1.99067
pop of  10 C 2s           1.12567
pop of  10 C 2px          1.00558
pop of  10 C 2py          0.94284
pop of  10 C 2pz          1.01550
pop of  11 C 1s           1.99102
pop of  11 C 2s           1.16563
pop of  11 C 2px          0.99020
pop of  11 C 2py          0.93747
pop of  11 C 2pz          0.99277
pop of  12 C 1s           1.99024
pop of  12 C 2s           1.07560
pop of  12 C 2px          1.03318
pop of  12 C 2py          0.96803
pop of  12 C 2pz          0.95760
pop of  13 C 1s           1.99035
pop of  13 C 2s           1.08072
pop of  13 C 2px          0.97868
pop of  13 C 2py          0.98282
pop of  13 C 2pz          0.97383
pop of  14 C 1s           1.99136
pop of  14 C 2s           1.17601
pop of  14 C 2px          0.97522
pop of  14 C 2py          0.92280
pop of  14 C 2pz          0.94651
pop of  15 C 1s           1.99102
pop of  15 C 2s           1.18417
pop of  15 C 2px          1.04533
pop of  15 C 2py          0.90263
pop of  15 C 2pz          0.96441
pop of  16 C 1s           1.99096
pop of  16 C 2s           1.07695
pop of  16 C 2px          1.02370
pop of  16 C 2py          0.97286
pop of  16 C 2pz          0.94988
pop of  17 C 1s           1.99156
pop of  17 C 2s           1.23728
pop of  17 C 2px          0.93143
pop of  17 C 2py          0.90946
pop of  17 C 2pz          0.91018
pop of  18 C 1s           1.99088
pop of  18 C 2s           1.12857
pop of  18 C 2px          1.00731
pop of  18 C 2py          0.98056
pop of  18 C 2pz          0.99042
pop of  19 C 1s           1.99101
pop of  19 C 2s           1.14476
pop of  19 C 2px          0.96387
pop of  19 C 2py          0.97727
pop of  19 C 2pz          0.99368
pop of  20 C 1s           1.99103
pop of  20 C 2s           1.17998
pop of  20 C 2px          0.97470
pop of  20 C 2py          0.96318
pop of  20 C 2pz          0.93452
pop of  21 C 1s           1.99071
pop of  21 C 2s           1.06297
pop of  21 C 2px          1.05155
pop of  21 C 2py          1.08175
pop of  21 C 2pz          0.98244
pop of  22 H 1s           0.94560
pop of  23 H 1s           0.94109
pop of  24 H 1s           0.89486
pop of  25 H 1s           0.92439
pop of  26 H 1s           0.92844
pop of  27 H 1s           0.88911
pop of  28 H 1s           0.89060
pop of  29 H 1s           0.89499
pop of  30 H 1s           0.99922
pop of  31 H 1s           0.90922
pop of  32 H 1s           0.92384
pop of  33 H 1s           0.91337
pop of  34 H 1s           0.90400
pop of  35 H 1s           0.87096
 ** Mulliken atomic charges  **
charge of    0C =      0.00099
charge of    1C =     -0.00114
charge of    2C =     -0.04007
charge of    3C =     -0.05592
charge of    4C =     -0.12221
charge of    5C =     -0.08266
charge of    6C =     -0.07116
charge of    7C =     -0.10753
charge of    8C =     -0.04709
charge of    9C =      0.01978
charge of   10C =     -0.08026
charge of   11C =     -0.07709
charge of   12C =     -0.02466
charge of   13C =     -0.00640
charge of   14C =     -0.01190
charge of   15C =     -0.08756
charge of   16C =     -0.01436
charge of   17C =      0.02009
charge of   18C =     -0.09775
charge of   19C =     -0.07059
charge of   20C =     -0.04341
charge of   21C =     -0.16941
charge of   22H =      0.05440
charge of   23H =      0.05891
charge of   24H =      0.10514
charge of   25H =      0.07561
charge of   26H =      0.07156
charge of   27H =      0.11089
charge of   28H =      0.10940
charge of   29H =      0.10501
charge of   30H =      0.00078
charge of   31H =      0.09078
charge of   32H =      0.07616
charge of   33H =      0.08663
charge of   34H =      0.09600
charge of   35H =      0.12904
Dipole moment(X, Y, Z, Debye):  0.28780, -0.11498, -0.31420
nelec by numeric integration = 146.00000042686654
    CPU time for vxc     39.06 sec, wall time     16.21 sec
E1 = -4130.01858896038  Ecoul = 1909.8969519744944  Exc = -124.83281428512998
nelec by numeric integration = 146.00000042686654
    CPU time for vxc     38.01 sec, wall time     15.84 sec
E1 = -4130.01858896038  Ecoul = 1909.896951974494  Exc = -124.83281428512998
