System: uname_result(system='Linux', node='cosmopc18', release='5.15.0-97-generic', version='#107-Ubuntu SMP Wed Feb 7 13:26:48 UTC 2024', machine='x86_64')  Threads 4
Python 3.11.8 (main, Feb 26 2024, 21:39:34) [GCC 11.2.0]
numpy 1.26.4  scipy 1.11.4
Date: Tue Apr  9 17:30:16 2024
PySCF version 2.3.0
PySCF path  /home/saade/miniconda3/envs/tutorial/lib/python3.11/site-packages/pyscf

[ENV] PYSCFAD_BACKEND torch
[CONFIG] conf_file None
[INPUT] verbose = 5
[INPUT] max_memory = 4000 
[INPUT] num. atoms = 36
[INPUT] num. electrons = 146
[INPUT] charge = 0
[INPUT] spin (= nelec alpha-beta = 2S) = 0
[INPUT] symmetry False subgroup None
[INPUT] Mole.unit = angstrom
[INPUT] Symbol           X                Y                Z      unit          X                Y                Z       unit  Magmom
[INPUT]  1 C     -0.007731000000   3.526893000000   0.811023000000 AA   -0.014609472669   6.664861840646   1.532611350723 Bohr   0.0
[INPUT]  2 C      0.031019000000   3.593331000000  -0.555007000000 AA    0.058617414658   6.790411464909  -1.048811227216 Bohr   0.0
[INPUT]  3 C      0.065104000000   4.983462000000   1.487733000000 AA    0.123028729614   9.417378332177   2.811407916478 Bohr   0.0
[INPUT]  4 C     -0.010600000000   2.638865000000   1.378457000000 AA   -0.020031096920   4.986732129700   2.604906204490 Bohr   0.0
[INPUT]  5 C      0.153728000000   4.873457000000  -1.256281000000 AA    0.290503817677   9.209499009844  -2.374027025495 Bohr   0.0
[INPUT]  6 C      0.058146000000   2.426068000000  -1.240118000000 AA    0.109880015239   4.584604079571  -2.343483382143 Bohr   0.0
[INPUT]  7 C     -0.131032000000   6.109444000000  -0.623438000000 AA   -0.247614593554  11.545175933367  -1.178127075647 Bohr   0.0
[INPUT]  8 C      0.055942000000   6.269584000000   0.731353000000 AA    0.105715058860  11.847796674955   1.382056870379 Bohr   0.0
[INPUT]  9 C      0.187829000000   1.251289000000   0.574956000000 AA    0.354945368251   2.364593512681   1.086509373675 Bohr   0.0
[INPUT] 10 C      0.150430000000   1.160490000000  -0.653800000000 AA    0.284271500918   2.193008270297  -1.235502940241 Bohr   0.0
[INPUT] 11 C      0.012750000000   0.108153000000   1.393185000000 AA    0.024094008088   0.204379549550   2.632738090852 Bohr   0.0
[INPUT] 12 C      0.003620000000   0.091276000000  -1.293664000000 AA    0.006840808571   0.172486641746  -2.444670657209 Bohr   0.0
[INPUT] 13 C      0.066697000000  -1.183061000000   0.635751000000 AA    0.126039063330  -2.235661278654   1.201395273418 Bohr   0.0
[INPUT] 14 C     -0.196887000000  -1.184400000000  -0.675484000000 AA   -0.372062507487  -2.238191621935  -1.276479761526 Bohr   0.0
[INPUT] 15 C      0.093516000000  -2.387983000000   1.354743000000 AA    0.176719628265  -4.512633860117   2.560093239172 Bohr   0.0
[INPUT] 16 C      0.063618000000  -2.610074000000  -1.298954000000 AA    0.120220596593  -4.932325024848  -2.454667308408 Bohr   0.0
[INPUT] 17 C      0.025882000000  -3.630264000000   0.772821000000 AA    0.048909891556  -6.860204719868   1.460420033312 Bohr   0.0
[INPUT] 18 C      0.005861000000  -3.660726000000  -0.694150000000 AA    0.011075684816  -6.917769557075  -1.311753389367 Bohr   0.0
[INPUT] 19 C      0.053614000000  -5.029321000000   1.603642000000 AA    0.101315776442  -9.504039282524   3.030444181850 Bohr   0.0
[INPUT] 20 C     -0.234640000000  -5.044465000000  -1.401733000000 AA   -0.443405337868  -9.532657294954  -2.648891469765 Bohr   0.0
[INPUT] 21 C      0.169422000000  -6.026621000000   0.668398000000 AA    0.320161179476 -11.388663146552   1.263089162207 Bohr   0.0
[INPUT] 22 C     -0.113349000000  -6.164726000000  -0.691780000000 AA   -0.214198566493 -11.649643772985  -1.307274738452 Bohr   0.0
[INPUT] 23 H     -0.059923000000   4.962173000000   2.434428000000 AA   -0.113238058562   9.377147952711   4.600402189973 Bohr   0.0
[INPUT] 24 H     -0.192185000000   2.141533000000   2.363065000000 AA   -0.363177015250   4.046910856718   4.465545664545 Bohr   0.0
[INPUT] 25 H      0.005154000000   4.931953000000  -2.552572000000 AA    0.009739648446   9.320040429227  -4.823661993233 Bohr   0.0
[INPUT] 26 H     -0.002062000000   2.589196000000  -2.465028000000 AA   -0.003896615269   4.892871322819  -4.658227809384 Bohr   0.0
[INPUT] 27 H      0.060086000000   6.948721000000  -1.384123000000 AA    0.113546083921  13.131179606014  -2.615613392711 Bohr   0.0
[INPUT] 28 H      0.038280000000   7.217320000000   1.362047000000 AA    0.072338716048  13.638758153346   2.573895798785 Bohr   0.0
[INPUT] 29 H     -0.079878000000   0.023147000000   2.607994000000 AA   -0.150947543378   0.043741490605   4.928394394509 Bohr   0.0
[INPUT] 30 H      0.184726000000   0.179102000000  -2.549760000000 AA    0.349081548086   0.338453728362  -4.818348083371 Bohr   0.0
[INPUT] 31 H      0.159725000000  -2.478985000000   2.637767000000 AA    0.301836505246  -4.684602716905   4.984657210416 Bohr   0.0
[INPUT] 32 H     -0.051387000000  -2.455560000000  -2.304112000000 AA   -0.097107356363  -4.640335882437  -4.354140640324 Bohr   0.0
[INPUT] 33 H      0.172009000000  -4.846282000000   2.377560000000 AA    0.325049900960  -9.158145702409   4.492937244721 Bohr   0.0
[INPUT] 34 H     -0.030366000000  -5.138204000000  -2.305744000000 AA   -0.057383423499  -9.709798332145  -4.357224673359 Bohr   0.0
[INPUT] 35 H     -0.031371000000  -6.995595000000   1.325799000000 AA   -0.059282598254 -13.219758628377   2.505397006222 Bohr   0.0
[INPUT] 36 H     -0.017564000000  -7.036778000000  -1.300670000000 AA   -0.033191149652 -13.297583219365  -2.457910078438 Bohr   0.0
[INPUT] ---------------- BASIS SET ---------------- 
[INPUT] l, kappa, [nprim/nctr], expnt,             c_1 c_2 ...
[INPUT] H
[INPUT] 0    0    [3    /1   ]  3.42525091        0.15432897
                                0.62391373        0.53532814
                                0.1688554         0.44463454
[INPUT] C
[INPUT] 0    0    [3    /1   ]  71.616837         0.15432897
                                13.045096         0.53532814
                                3.5305122         0.44463454
[INPUT] 0    0    [3    /1   ]  2.9412494         -0.09996723
                                0.6834831         0.39951283
                                0.2222899         0.70011547
[INPUT] 1    0    [3    /1   ]  2.9412494         0.15591627
                                0.6834831         0.60768372
                                0.2222899         0.39195739

nuclear repulsion = 1503.3653604907
number of shells = 80
number of NR pGTOs = 372
number of NR cGTOs = 124
basis = sto3g
ecp = {}
CPU time:     68519.54
atom C rad-grids = 99, ang-grids = [ 50  50  50  50  50  50  50  50  50  50  50  50  50  50  50  50  50  50
  50  50  50  50  50  50  50  50  50  50  50  50  50  86  86  86  86  86
  86  86  86  86  86  86  86 434 434 434 434 434 434 434 434 434 590 590
 590 590 590 590 590 590 590 590 590 590 590 590 590 590 590 590 590 590
 590 590 590 590 590 590 590 434 434 434 434 434 434 434 434 434 434 434
 434 434 434 434 434 434 434 434 434]
atom H rad-grids = 99, ang-grids = [ 50  50  50  50  50  50  50  50  50  50  50  50  50  50  50  50  50  50
  50  50  50  50  50  50  50  50  50  50  86  86  86  86  86  86  86 434
 434 434 434 434 434 434 434 590 590 590 590 590 590 590 590 590 590 590
 590 590 590 590 590 590 590 590 590 590 590 590 590 590 590 434 434 434
 434 434 434 434 434 434 434 434 434 434 434 434 434 434 434 434 434 434
 434 434 434 434 434 434 434 434 434]
tot_boxes 5270, boxes in each direction [ 8 29 15]
Padding 0 grids
tot grids = 1157832


******** <class 'pyscf.dft.rks.RKS'> ********
method = RKS
initial guess = minao
damping factor = 0
level_shift factor = 0
DIIS = <class 'pyscf.scf.diis.CDIIS'>
diis_start_cycle = 1
diis_space = 8
SCF conv_tol = 1e-10
SCF conv_tol_grad = None
SCF max_cycles = 50
direct_scf = True
direct_scf_tol = 1e-13
chkfile to save SCF result = /home/saade/mlelec/tutorials/tmpjdvx2ecl
max_memory 4000 MB (current use 690 MB)
XC library pyscf.dft.libxc version 6.1.0
    S. Lehtola, C. Steigemann, M. J.T. Oliveira, and M. A.L. Marques.,  SoftwareX 7, 1–5 (2018)
XC functionals = b3lypg
    P. J. Stephens, F. J. Devlin, C. F. Chabalowski, and M. J. Frisch.,  J. Phys. Chem. 98, 11623 (1994)
radial grids: 
    Treutler-Ahlrichs [JCP 102, 346 (1995); DOI:10.1063/1.469408] (M4) radial grids
    
becke partition: Becke, JCP 88, 2547 (1988); DOI:10.1063/1.454033
pruning grids: <function nwchem_prune at 0x7f9db5616ca0>
grids dens level: 3
symmetrized grids: False
atomic radii adjust function: <function treutler_atomic_radii_adjust at 0x7f9db5617380>
User specified grid scheme (99, 590)
small_rho_cutoff = 1e-07
Set gradient conv threshold to 1e-05
Initial guess from minao.
nelec by numeric integration = 145.27084126592828
    CPU time for vxc     37.51 sec, wall time     15.57 sec
E1 = -4106.376744226876  Ecoul = 1887.545593809543  Exc = -126.16216037610528
init E= -841.627950302734
cond(S) = 37.86270824349814
    CPU time for initialize scf     46.98 sec, wall time     17.87 sec
  HOMO = -0.209910445255798  LUMO = -0.139313305598247
  mo_energy =
[-1.01858676e+01 -1.01687321e+01 -1.01617523e+01 -1.01234795e+01
 -1.01208061e+01 -1.01194369e+01 -1.01164168e+01 -1.01120985e+01
 -1.01105627e+01 -1.01091825e+01 -1.01026343e+01 -1.01016910e+01
 -1.00978150e+01 -1.00965613e+01 -1.00926050e+01 -1.00851872e+01
 -1.00849005e+01 -1.00845435e+01 -1.00835341e+01 -1.00803035e+01
 -1.00758516e+01 -1.00724537e+01 -1.14590848e+00 -1.08370292e+00
 -1.04773508e+00 -9.87792634e-01 -9.62036970e-01 -9.38618328e-01
 -9.19859241e-01 -8.86857944e-01 -8.79101028e-01 -8.36735347e-01
 -7.94122114e-01 -7.65203163e-01 -7.36126727e-01 -7.13905258e-01
 -6.95310552e-01 -6.90045328e-01 -6.76047195e-01 -6.24087301e-01
 -6.05756007e-01 -5.91740389e-01 -5.68002865e-01 -5.61172432e-01
 -5.43173485e-01 -5.24764561e-01 -5.19331927e-01 -5.10433541e-01
 -5.00394692e-01 -4.86004552e-01 -4.79073371e-01 -4.65903939e-01
 -4.63850887e-01 -4.48680928e-01 -4.42136874e-01 -4.35159534e-01
 -4.27718819e-01 -4.13617605e-01 -4.05421852e-01 -3.93559990e-01
 -3.82336462e-01 -3.74903615e-01 -3.65020673e-01 -3.56327168e-01
 -3.51085164e-01 -3.29170290e-01 -3.19796428e-01 -3.15151815e-01
 -3.07394600e-01 -2.98761025e-01 -2.78959329e-01 -2.44394896e-01
 -2.09910445e-01 -1.39313306e-01 -1.11417638e-01 -7.24480110e-02
 -5.85572291e-02 -1.99655615e-02 -3.57329310e-03  1.62449400e-02
  4.01749772e-02  5.77874675e-02  9.88133999e-02  1.12335809e-01
  1.19782902e-01  1.45185477e-01  1.50397585e-01  1.71172617e-01
  1.80445853e-01  1.84322004e-01  1.99612460e-01  2.10190431e-01
  2.45745697e-01  2.48856035e-01  2.54918770e-01  2.63330467e-01
  2.81487140e-01  2.96487038e-01  3.03908564e-01  3.18987212e-01
  3.24775848e-01  3.44064875e-01  3.67252680e-01  3.98513119e-01
  4.08441068e-01  4.28954033e-01  4.58015038e-01  4.72327405e-01
  4.79724229e-01  4.91411961e-01  5.15848107e-01  5.27874062e-01
  5.45036681e-01  5.58563257e-01  5.93399086e-01  6.04929702e-01
  6.12925022e-01  6.43573721e-01  6.58211626e-01  7.48443461e-01
  7.77985653e-01  8.07858314e-01  8.44653797e-01  1.12702909e+00]
nelec by numeric integration = 146.00000345468405
    CPU time for vxc     38.33 sec, wall time     15.78 sec
E1 = -4121.533276723503  Ecoul = 1907.448055255565  Exc = -124.80894453626604
cycle= 1 E= -835.528805513499  delta_E=  6.1  |g|= 0.291  |ddm|=  9.3
    CPU time for cycle= 1     38.78 sec, wall time     15.85 sec
  HOMO = -0.0892670890524523  LUMO = 0.0125706971102379
  mo_energy =
[-10.04300733 -10.04033333 -10.0161628  -10.00968271 -10.00671487
 -10.00297639 -10.00284789 -10.0016167   -9.99600381  -9.99157259
  -9.98797258  -9.98693745  -9.98008222  -9.97274979  -9.97084919
  -9.97016152  -9.96984057  -9.96900721  -9.95506975  -9.94382296
  -9.92984139  -9.9207931   -0.84668811  -0.82229146  -0.79921158
  -0.77240338  -0.74062599  -0.73629713  -0.72052703  -0.69066597
  -0.68023155  -0.65510691  -0.62770849  -0.61551583  -0.58781223
  -0.55658906  -0.55272082  -0.54214601  -0.52490218  -0.51008781
  -0.48059171  -0.4664611   -0.45519843  -0.44005635  -0.42746645
  -0.41264105  -0.40659183  -0.39236125  -0.3801374   -0.37733363
  -0.36679376  -0.35838407  -0.34693008  -0.33959077  -0.33560009
  -0.32527042  -0.3154832   -0.30900098  -0.30465465  -0.29693062
  -0.28471703  -0.27501015  -0.26119928  -0.2465541   -0.24235973
  -0.23371551  -0.22041242  -0.20759019  -0.18242159  -0.18038116
  -0.16781939  -0.13304719  -0.08926709   0.0125707    0.03597263
   0.08254861   0.09532893   0.13967424   0.1481866    0.18134801
   0.18781064   0.23120578   0.25046998   0.26430735   0.2690285
   0.27802762   0.29984915   0.30475491   0.32201216   0.33120153
   0.34810156   0.36873684   0.373044     0.39618437   0.40571724
   0.41259466   0.42731983   0.43466366   0.47096762   0.47963207
   0.49669426   0.50583496   0.52388392   0.53862395   0.56125381
   0.59168961   0.61668913   0.62915714   0.63210763   0.64810625
   0.65679001   0.68392025   0.68851114   0.73108224   0.74997051
   0.7553149    0.76695683   0.77196575   0.85160594   0.94063242
   0.95199976   0.97196169   0.99801824   1.36860744]
nelec by numeric integration = 146.00000345607677
    CPU time for vxc     37.69 sec, wall time     15.57 sec
E1 = -4115.731422830354  Ecoul = 1901.4928314087672  Exc = -124.65442232222419
cycle= 2 E= -835.527653253106  delta_E= 0.00115  |g|= 0.318  |ddm|= 0.953
    CPU time for cycle= 2     37.89 sec, wall time     15.61 sec
  HOMO = -0.113646677875258  LUMO = -0.00354939120911943
  mo_energy =
[-1.00459987e+01 -1.00262629e+01 -1.00231133e+01 -1.00221054e+01
 -1.00220419e+01 -1.00212586e+01 -1.00188847e+01 -1.00184487e+01
 -1.00179883e+01 -1.00166211e+01 -1.00147728e+01 -1.00143876e+01
 -1.00111813e+01 -1.00083837e+01 -1.00055251e+01 -1.00013459e+01
 -1.00004946e+01 -9.99439292e+00 -9.99227585e+00 -9.98737601e+00
 -9.98667877e+00 -9.98567618e+00 -8.86034707e-01 -8.44958380e-01
 -8.22319436e-01 -7.84741239e-01 -7.59147999e-01 -7.46166242e-01
 -7.36676650e-01 -7.10839982e-01 -7.01370849e-01 -6.71863429e-01
 -6.41947675e-01 -6.25436874e-01 -6.07328589e-01 -5.75155373e-01
 -5.65926791e-01 -5.58295568e-01 -5.50110013e-01 -5.17125015e-01
 -4.93466395e-01 -4.79563861e-01 -4.68845629e-01 -4.55373754e-01
 -4.42174550e-01 -4.25211996e-01 -4.15171678e-01 -4.08929131e-01
 -3.94924283e-01 -3.93156640e-01 -3.86365640e-01 -3.74297566e-01
 -3.64191933e-01 -3.57285304e-01 -3.50107371e-01 -3.40766655e-01
 -3.32238503e-01 -3.24799175e-01 -3.13222201e-01 -3.08010251e-01
 -2.93912537e-01 -2.84202759e-01 -2.75333999e-01 -2.61881453e-01
 -2.59255232e-01 -2.40883352e-01 -2.35756443e-01 -2.23280746e-01
 -2.15288604e-01 -1.99442169e-01 -1.84750819e-01 -1.48599020e-01
 -1.13646678e-01 -3.54939121e-03  2.15451879e-02  6.64750577e-02
  8.08274976e-02  1.21071925e-01  1.38459250e-01  1.62184679e-01
  1.76825229e-01  1.99689295e-01  2.44624314e-01  2.48598298e-01
  2.52589714e-01  2.72875576e-01  2.91805455e-01  3.03040345e-01
  3.11889109e-01  3.22666518e-01  3.37631417e-01  3.54417495e-01
  3.72290836e-01  3.73499594e-01  3.97782858e-01  4.06168164e-01
  4.11837301e-01  4.36589552e-01  4.41193060e-01  4.63059867e-01
  4.68190788e-01  4.88772752e-01  5.04986222e-01  5.28197755e-01
  5.44238590e-01  5.73328065e-01  5.93334392e-01  6.15589265e-01
  6.16256035e-01  6.27646524e-01  6.52535484e-01  6.69843999e-01
  6.82991444e-01  7.03902901e-01  7.36004872e-01  7.41180480e-01
  7.54790837e-01  7.66619996e-01  8.09950694e-01  9.04298265e-01
  9.29299339e-01  9.52072084e-01  9.71330108e-01  1.29278738e+00]
nelec by numeric integration = 146.0000034441538
    CPU time for vxc     37.84 sec, wall time     15.60 sec
E1 = -4117.864406001428  Ecoul = 1903.6383477590343  Exc = -124.69468344005556
cycle= 3 E= -835.555381191744  delta_E= -0.0277  |g|= 0.161  |ddm|= 0.65
    CPU time for cycle= 3     38.52 sec, wall time     15.70 sec
  HOMO = -0.116604145337667  LUMO = -0.00782540710041814
  mo_energy =
[-1.00479247e+01 -1.00393739e+01 -1.00299270e+01 -1.00271861e+01
 -1.00252487e+01 -1.00242843e+01 -1.00235982e+01 -1.00230686e+01
 -1.00229111e+01 -1.00223579e+01 -1.00219500e+01 -1.00211376e+01
 -1.00165608e+01 -1.00165324e+01 -1.00140087e+01 -1.00131689e+01
 -1.00127328e+01 -1.00108449e+01 -1.00094849e+01 -1.00079603e+01
 -1.00038792e+01 -9.97981761e+00 -8.92121491e-01 -8.49911306e-01
 -8.27564369e-01 -7.90581288e-01 -7.66718178e-01 -7.52092769e-01
 -7.40948942e-01 -7.16114664e-01 -7.07054090e-01 -6.76311643e-01
 -6.42055255e-01 -6.28749986e-01 -6.11882850e-01 -5.81866048e-01
 -5.70143039e-01 -5.62473170e-01 -5.53318804e-01 -5.20275124e-01
 -4.97865709e-01 -4.84750073e-01 -4.72629618e-01 -4.57145560e-01
 -4.45618612e-01 -4.29788632e-01 -4.21325861e-01 -4.12921577e-01
 -3.99186617e-01 -3.97451000e-01 -3.91097053e-01 -3.77986482e-01
 -3.68342207e-01 -3.60288151e-01 -3.53509369e-01 -3.44963613e-01
 -3.37263745e-01 -3.29094621e-01 -3.20077259e-01 -3.15507691e-01
 -2.99194725e-01 -2.90149838e-01 -2.80728274e-01 -2.69542520e-01
 -2.64879180e-01 -2.45370771e-01 -2.40071146e-01 -2.26955699e-01
 -2.19004004e-01 -2.05787820e-01 -1.89711175e-01 -1.53307213e-01
 -1.16604145e-01 -7.82540710e-03  1.77851367e-02  6.10311658e-02
  7.44077160e-02  1.15434068e-01  1.31791262e-01  1.56210741e-01
  1.70298694e-01  1.98710522e-01  2.39915697e-01  2.45534496e-01
  2.47880148e-01  2.66741744e-01  2.86593785e-01  2.98001949e-01
  3.08344962e-01  3.19220457e-01  3.32196699e-01  3.49193413e-01
  3.67076142e-01  3.69310779e-01  3.92211987e-01  4.01460860e-01
  4.10807005e-01  4.32951616e-01  4.38954825e-01  4.57803043e-01
  4.63682576e-01  4.82053330e-01  5.02151929e-01  5.23952827e-01
  5.37953334e-01  5.67615312e-01  5.92967224e-01  6.10086046e-01
  6.13362121e-01  6.24382278e-01  6.46705723e-01  6.60948096e-01
  6.77473256e-01  6.98039775e-01  7.31689038e-01  7.34391412e-01
  7.48399514e-01  7.62299663e-01  8.03778151e-01  8.96627448e-01
  9.22419180e-01  9.46979129e-01  9.66596812e-01  1.29148233e+00]
nelec by numeric integration = 146.00000346284784
    CPU time for vxc     38.34 sec, wall time     15.71 sec
E1 = -4118.408401292161  Ecoul = 1904.1883878584615  Exc = -124.70849707004552
cycle= 4 E= -835.563150013041  delta_E= -0.00777  |g|= 0.0608  |ddm|= 0.302
    CPU time for cycle= 4     38.91 sec, wall time     15.80 sec
  HOMO = -0.116580334100076  LUMO = -0.00768587535680309
  mo_energy =
[-1.00442493e+01 -1.00316963e+01 -1.00316481e+01 -1.00305806e+01
 -1.00297856e+01 -1.00268869e+01 -1.00238618e+01 -1.00230547e+01
 -1.00224963e+01 -1.00181459e+01 -1.00163599e+01 -1.00161314e+01
 -1.00157828e+01 -1.00145464e+01 -1.00143956e+01 -1.00132551e+01
 -1.00097100e+01 -1.00088322e+01 -1.00075512e+01 -1.00056916e+01
 -1.00016253e+01 -9.99660229e+00 -8.87862153e-01 -8.48443812e-01
 -8.26689402e-01 -7.91538222e-01 -7.65026913e-01 -7.51739970e-01
 -7.41237612e-01 -7.14938267e-01 -7.05500693e-01 -6.75959224e-01
 -6.42548451e-01 -6.29786598e-01 -6.11349612e-01 -5.79774995e-01
 -5.69903509e-01 -5.61280982e-01 -5.52760415e-01 -5.20774911e-01
 -4.97019079e-01 -4.82506781e-01 -4.73270107e-01 -4.56661731e-01
 -4.45859807e-01 -4.29342231e-01 -4.20722351e-01 -4.12620461e-01
 -3.98926113e-01 -3.95993624e-01 -3.90853989e-01 -3.77838315e-01
 -3.68714754e-01 -3.59966817e-01 -3.53930273e-01 -3.45195370e-01
 -3.36444636e-01 -3.28549487e-01 -3.17766437e-01 -3.13385007e-01
 -2.98419125e-01 -2.90659795e-01 -2.79257749e-01 -2.67848975e-01
 -2.64512534e-01 -2.46698518e-01 -2.40574492e-01 -2.26870789e-01
 -2.18544094e-01 -2.05168349e-01 -1.89689396e-01 -1.53645999e-01
 -1.16580334e-01 -7.68587536e-03  1.70855436e-02  6.11362197e-02
  7.47204465e-02  1.16316159e-01  1.31351644e-01  1.58158263e-01
  1.69219408e-01  1.99529367e-01  2.41341736e-01  2.45489435e-01
  2.48792818e-01  2.69379719e-01  2.86973489e-01  2.99120014e-01
  3.07380279e-01  3.20598992e-01  3.32994584e-01  3.52389186e-01
  3.67171433e-01  3.67963580e-01  3.93691610e-01  4.01240048e-01
  4.09729263e-01  4.31358075e-01  4.39641416e-01  4.58030530e-01
  4.64864995e-01  4.82639923e-01  5.01755876e-01  5.23331724e-01
  5.39254593e-01  5.67924702e-01  5.92612038e-01  6.10540566e-01
  6.13790432e-01  6.23554581e-01  6.46011050e-01  6.63160045e-01
  6.75847753e-01  7.00481302e-01  7.30118782e-01  7.35665562e-01
  7.48703906e-01  7.60065491e-01  8.07685037e-01  9.00947486e-01
  9.25319421e-01  9.49078941e-01  9.66799827e-01  1.29443906e+00]
nelec by numeric integration = 146.00000345840206
    CPU time for vxc     38.42 sec, wall time     15.85 sec
E1 = -4118.232450958709  Ecoul = 1904.0098866267026  Exc = -124.70702315767997
cycle= 5 E= -835.564226998981  delta_E= -0.00108  |g|= 0.0278  |ddm|= 0.125
    CPU time for cycle= 5     39.09 sec, wall time     15.95 sec
  HOMO = -0.115910902011753  LUMO = -0.00697002479949854
  mo_energy =
[-1.00412910e+01 -1.00322546e+01 -1.00304684e+01 -1.00280286e+01
 -1.00275456e+01 -1.00272315e+01 -1.00229920e+01 -1.00225360e+01
 -1.00198550e+01 -1.00190631e+01 -1.00186655e+01 -1.00182004e+01
 -1.00171924e+01 -1.00125882e+01 -1.00113973e+01 -1.00107252e+01
 -1.00086766e+01 -1.00083413e+01 -1.00061327e+01 -1.00042070e+01
 -1.00011930e+01 -9.99353693e+00 -8.87527126e-01 -8.47567647e-01
 -8.26045487e-01 -7.90825289e-01 -7.63587448e-01 -7.51107406e-01
 -7.40852651e-01 -7.14396425e-01 -7.05231422e-01 -6.75298817e-01
 -6.41627182e-01 -6.29046277e-01 -6.10841449e-01 -5.79509805e-01
 -5.69223260e-01 -5.60764527e-01 -5.52101350e-01 -5.20415994e-01
 -4.96514804e-01 -4.82016563e-01 -4.72762784e-01 -4.56210557e-01
 -4.44873524e-01 -4.28774524e-01 -4.20197826e-01 -4.12031319e-01
 -3.97967890e-01 -3.95415939e-01 -3.90280379e-01 -3.77302010e-01
 -3.68322374e-01 -3.59245945e-01 -3.53184265e-01 -3.44414851e-01
 -3.36176571e-01 -3.28292387e-01 -3.17802378e-01 -3.13588662e-01
 -2.98322109e-01 -2.90124975e-01 -2.79107580e-01 -2.66793829e-01
 -2.63947539e-01 -2.46275795e-01 -2.39772511e-01 -2.26277845e-01
 -2.17675310e-01 -2.04760685e-01 -1.89374964e-01 -1.52986388e-01
 -1.15910902e-01 -6.97002480e-03  1.75397272e-02  6.17942364e-02
  7.51762731e-02  1.16893970e-01  1.32179370e-01  1.59288965e-01
  1.70102434e-01  2.00491826e-01  2.41694016e-01  2.45724986e-01
  2.48416579e-01  2.69028463e-01  2.87606507e-01  2.99236923e-01
  3.07852433e-01  3.20076294e-01  3.33379991e-01  3.52849340e-01
  3.67854570e-01  3.68752914e-01  3.93940479e-01  4.02289334e-01
  4.11345896e-01  4.31994435e-01  4.40967837e-01  4.58556655e-01
  4.65696887e-01  4.84111531e-01  5.02589304e-01  5.24041064e-01
  5.39595187e-01  5.69098309e-01  5.93665551e-01  6.11175774e-01
  6.14431389e-01  6.24628296e-01  6.46647299e-01  6.63304067e-01
  6.76303882e-01  7.00585907e-01  7.32082792e-01  7.36141127e-01
  7.49261754e-01  7.60550158e-01  8.07954754e-01  9.00539256e-01
  9.25305382e-01  9.48743590e-01  9.66923288e-01  1.29697322e+00]
nelec by numeric integration = 146.00000345826427
    CPU time for vxc     38.29 sec, wall time     15.75 sec
E1 = -4118.218423070892  Ecoul = 1903.993446656573  Exc = -124.7048633091248
cycle= 6 E= -835.564479232739  delta_E= -0.000252  |g|= 0.00811  |ddm|= 0.0494
    CPU time for cycle= 6     38.73 sec, wall time     15.83 sec
  HOMO = -0.115742294767037  LUMO = -0.00667759079389295
  mo_energy =
[-1.00419329e+01 -1.00316917e+01 -1.00296929e+01 -1.00271705e+01
 -1.00267351e+01 -1.00263220e+01 -1.00225472e+01 -1.00215475e+01
 -1.00201906e+01 -1.00191192e+01 -1.00181144e+01 -1.00174672e+01
 -1.00173713e+01 -1.00116778e+01 -1.00108281e+01 -1.00097026e+01
 -1.00090962e+01 -1.00083565e+01 -1.00066352e+01 -1.00038828e+01
 -1.00021052e+01 -9.99261637e+00 -8.87405350e-01 -8.47343100e-01
 -8.25684643e-01 -7.90346267e-01 -7.63829519e-01 -7.50755735e-01
 -7.40436472e-01 -7.14207571e-01 -7.04903720e-01 -6.75069835e-01
 -6.41443572e-01 -6.28782530e-01 -6.10588705e-01 -5.79259011e-01
 -5.68989481e-01 -5.60673884e-01 -5.51959251e-01 -5.20103623e-01
 -4.96363960e-01 -4.81953706e-01 -4.72517921e-01 -4.55985327e-01
 -4.44819319e-01 -4.28542111e-01 -4.19927956e-01 -4.11828820e-01
 -3.97889828e-01 -3.95351575e-01 -3.90071624e-01 -3.77121645e-01
 -3.67965812e-01 -3.59111946e-01 -3.53004119e-01 -3.44250898e-01
 -3.35811026e-01 -3.28134811e-01 -3.17622848e-01 -3.13506756e-01
 -2.98109114e-01 -2.89809764e-01 -2.78928277e-01 -2.67002445e-01
 -2.63690362e-01 -2.45855902e-01 -2.39526997e-01 -2.26050235e-01
 -2.17620972e-01 -2.04432707e-01 -1.89024169e-01 -1.52767408e-01
 -1.15742295e-01 -6.67759079e-03  1.79260149e-02  6.20597461e-02
  7.56218965e-02  1.17111401e-01  1.32529120e-01  1.59135022e-01
  1.70379859e-01  2.00421184e-01  2.41987918e-01  2.45848002e-01
  2.48990785e-01  2.69009714e-01  2.87835307e-01  2.99368625e-01
  3.08173439e-01  3.20534791e-01  3.33438807e-01  3.52864913e-01
  3.68298857e-01  3.68593839e-01  3.94320692e-01  4.02384392e-01
  4.11097470e-01  4.32400894e-01  4.40879105e-01  4.58970643e-01
  4.65801939e-01  4.83990281e-01  5.02853871e-01  5.24293265e-01
  5.39867403e-01  5.69114733e-01  5.93835333e-01  6.11527669e-01
  6.14618237e-01  6.24756445e-01  6.47022489e-01  6.63669472e-01
  6.76907419e-01  7.00900348e-01  7.31922685e-01  7.36424864e-01
  7.49695318e-01  7.61084494e-01  8.08021828e-01  9.01022874e-01
  9.25753635e-01  9.49225154e-01  9.67429453e-01  1.29632204e+00]
nelec by numeric integration = 146.00000345826643
    CPU time for vxc     38.19 sec, wall time     15.69 sec
E1 = -4118.190606710539  Ecoul = 1903.9650956575779  Exc = -124.70435098255572
cycle= 7 E= -835.564501544812  delta_E= -2.23e-05  |g|= 0.00211  |ddm|= 0.0144
    CPU time for cycle= 7     38.64 sec, wall time     15.76 sec
  HOMO = -0.115746965727188  LUMO = -0.00664556850710103
  mo_energy =
[-1.00420828e+01 -1.00319256e+01 -1.00297876e+01 -1.00272401e+01
 -1.00263998e+01 -1.00262622e+01 -1.00224888e+01 -1.00215756e+01
 -1.00202944e+01 -1.00188505e+01 -1.00183722e+01 -1.00172828e+01
 -1.00169964e+01 -1.00118891e+01 -1.00105700e+01 -1.00101196e+01
 -1.00088869e+01 -1.00084774e+01 -1.00063890e+01 -1.00036680e+01
 -1.00020259e+01 -9.99257797e+00 -8.87466007e-01 -8.47364722e-01
 -8.25706852e-01 -7.90335609e-01 -7.63757174e-01 -7.50744752e-01
 -7.40392251e-01 -7.14169443e-01 -7.04905684e-01 -6.75040866e-01
 -6.41426996e-01 -6.28734397e-01 -6.10560546e-01 -5.79282828e-01
 -5.68970473e-01 -5.60662370e-01 -5.51952571e-01 -5.20067847e-01
 -4.96357305e-01 -4.81964223e-01 -4.72474485e-01 -4.55982103e-01
 -4.44797617e-01 -4.28541679e-01 -4.19925460e-01 -4.11830668e-01
 -3.97867130e-01 -3.95364701e-01 -3.90075140e-01 -3.77121084e-01
 -3.67965150e-01 -3.59081860e-01 -3.52979542e-01 -3.44231830e-01
 -3.35828074e-01 -3.28115736e-01 -3.17626398e-01 -3.13447031e-01
 -2.98075579e-01 -2.89785363e-01 -2.78928072e-01 -2.66932276e-01
 -2.63679211e-01 -2.45836504e-01 -2.39506700e-01 -2.26015980e-01
 -2.17609536e-01 -2.04419151e-01 -1.88975681e-01 -1.52718272e-01
 -1.15746966e-01 -6.64556851e-03  1.80030665e-02  6.21102351e-02
  7.56232509e-02  1.17137801e-01  1.32541435e-01  1.59156307e-01
  1.70430573e-01  2.00451131e-01  2.41963440e-01  2.45917378e-01
  2.48992044e-01  2.69085572e-01  2.87836830e-01  2.99384309e-01
  3.08193373e-01  3.20510057e-01  3.33449602e-01  3.52835329e-01
  3.68315516e-01  3.68651237e-01  3.94296206e-01  4.02412132e-01
  4.11140834e-01  4.32367192e-01  4.40903745e-01  4.58946577e-01
  4.65826682e-01  4.84026888e-01  5.02868517e-01  5.24339716e-01
  5.39908112e-01  5.69172756e-01  5.93856048e-01  6.11545635e-01
  6.14618014e-01  6.24790629e-01  6.47062816e-01  6.63653902e-01
  6.76975624e-01  7.00886194e-01  7.32008682e-01  7.36441023e-01
  7.49712041e-01  7.61121511e-01  8.08004933e-01  9.00956956e-01
  9.25706433e-01  9.49248707e-01  9.67469820e-01  1.29624554e+00]
nelec by numeric integration = 146.00000345839996
    CPU time for vxc     38.31 sec, wall time     15.74 sec
E1 = -4118.192222244226  Ecoul = 1903.966683180773  Exc = -124.7043243503923
cycle= 8 E= -835.564502923141  delta_E= -1.38e-06  |g|= 0.000521  |ddm|= 0.00326
    CPU time for cycle= 8     38.88 sec, wall time     15.82 sec
  HOMO = -0.115771281331118  LUMO = -0.00664968013952529
  mo_energy =
[-1.00420952e+01 -1.00318899e+01 -1.00298133e+01 -1.00271541e+01
 -1.00264505e+01 -1.00262395e+01 -1.00225253e+01 -1.00216552e+01
 -1.00202593e+01 -1.00188733e+01 -1.00183550e+01 -1.00172092e+01
 -1.00169901e+01 -1.00118978e+01 -1.00106137e+01 -1.00101033e+01
 -1.00089813e+01 -1.00084167e+01 -1.00064294e+01 -1.00037687e+01
 -1.00020050e+01 -9.99265061e+00 -8.87457566e-01 -8.47377046e-01
 -8.25703927e-01 -7.90326842e-01 -7.63775730e-01 -7.50751937e-01
 -7.40406088e-01 -7.14182382e-01 -7.04910628e-01 -6.75050171e-01
 -6.41442318e-01 -6.28741426e-01 -6.10577856e-01 -5.79279858e-01
 -5.68984809e-01 -5.60661216e-01 -5.51964018e-01 -5.20073697e-01
 -4.96362436e-01 -4.81967374e-01 -4.72473159e-01 -4.55985615e-01
 -4.44806725e-01 -4.28543366e-01 -4.19930806e-01 -4.11832033e-01
 -3.97871083e-01 -3.95364308e-01 -3.90075052e-01 -3.77123856e-01
 -3.67957309e-01 -3.59097159e-01 -3.52991232e-01 -3.44240595e-01
 -3.35825342e-01 -3.28119483e-01 -3.17616400e-01 -3.13454599e-01
 -2.98075620e-01 -2.89783388e-01 -2.78929807e-01 -2.66946206e-01
 -2.63687543e-01 -2.45840189e-01 -2.39511048e-01 -2.26025922e-01
 -2.17615511e-01 -2.04427987e-01 -1.88990463e-01 -1.52734038e-01
 -1.15771281e-01 -6.64968014e-03  1.79948332e-02  6.20945164e-02
  7.56144910e-02  1.17125119e-01  1.32542011e-01  1.59150351e-01
  1.70432014e-01  2.00448924e-01  2.41968435e-01  2.45911106e-01
  2.48990354e-01  2.69076904e-01  2.87829343e-01  2.99385762e-01
  3.08198923e-01  3.20523366e-01  3.33449613e-01  3.52841969e-01
  3.68311090e-01  3.68633512e-01  3.94291667e-01  4.02407816e-01
  4.11119902e-01  4.32383282e-01  4.40891044e-01  4.58943741e-01
  4.65808043e-01  4.84018481e-01  5.02854670e-01  5.24331644e-01
  5.39888668e-01  5.69161407e-01  5.93833772e-01  6.11528910e-01
  6.14612477e-01  6.24777078e-01  6.47065912e-01  6.63651744e-01
  6.76987891e-01  7.00882241e-01  7.31980209e-01  7.36431513e-01
  7.49694530e-01  7.61142873e-01  8.07997319e-01  9.00966139e-01
  9.25716721e-01  9.49235438e-01  9.67451001e-01  1.29625160e+00]
nelec by numeric integration = 146.0000034583849
    CPU time for vxc     37.79 sec, wall time     15.63 sec
E1 = -4118.193281510016  Ecoul = 1903.9677661214446  Exc = -124.70434810151329
cycle= 9 E= -835.56450299938  delta_E= -7.62e-08  |g|= 0.000246  |ddm|= 0.000996
    CPU time for cycle= 9     38.28 sec, wall time     15.70 sec
  HOMO = -0.115773435325851  LUMO = -0.00664735977749733
  mo_energy =
[-1.00420736e+01 -1.00318851e+01 -1.00298071e+01 -1.00271995e+01
 -1.00264395e+01 -1.00262736e+01 -1.00225019e+01 -1.00216317e+01
 -1.00202484e+01 -1.00188748e+01 -1.00183593e+01 -1.00172491e+01
 -1.00170480e+01 -1.00118731e+01 -1.00106456e+01 -1.00100813e+01
 -1.00089453e+01 -1.00084253e+01 -1.00064072e+01 -1.00037532e+01
 -1.00020282e+01 -9.99266086e+00 -8.87455427e-01 -8.47370220e-01
 -8.25707867e-01 -7.90338831e-01 -7.63781622e-01 -7.50749017e-01
 -7.40406297e-01 -7.14181912e-01 -7.04906445e-01 -6.75045382e-01
 -6.41444485e-01 -6.28750998e-01 -6.10580322e-01 -5.79272322e-01
 -5.68986250e-01 -5.60658080e-01 -5.51961215e-01 -5.20078836e-01
 -4.96360998e-01 -4.81963000e-01 -4.72484919e-01 -4.55986293e-01
 -4.44809328e-01 -4.28548105e-01 -4.19931420e-01 -4.11830584e-01
 -3.97877980e-01 -3.95361183e-01 -3.90072966e-01 -3.77124530e-01
 -3.67963235e-01 -3.59096853e-01 -3.52987978e-01 -3.44238052e-01
 -3.35825009e-01 -3.28108510e-01 -3.17612319e-01 -3.13450836e-01
 -2.98076507e-01 -2.89789005e-01 -2.78928452e-01 -2.66950886e-01
 -2.63681157e-01 -2.45838611e-01 -2.39513597e-01 -2.26025806e-01
 -2.17615201e-01 -2.04428092e-01 -1.88990521e-01 -1.52734553e-01
 -1.15773435e-01 -6.64735978e-03  1.79888692e-02  6.20969325e-02
  7.56190054e-02  1.17126708e-01  1.32539902e-01  1.59150428e-01
  1.70421974e-01  2.00448722e-01  2.41969734e-01  2.45926340e-01
  2.48992174e-01  2.69079409e-01  2.87837826e-01  2.99398376e-01
  3.08198911e-01  3.20525202e-01  3.33462245e-01  3.52845347e-01
  3.68304771e-01  3.68625995e-01  3.94295500e-01  4.02411867e-01
  4.11109315e-01  4.32370947e-01  4.40891695e-01  4.58946237e-01
  4.65811564e-01  4.84026019e-01  5.02851191e-01  5.24320484e-01
  5.39887542e-01  5.69164177e-01  5.93833650e-01  6.11536849e-01
  6.14613893e-01  6.24775118e-01  6.47052703e-01  6.63648941e-01
  6.76966502e-01  7.00887525e-01  7.31966790e-01  7.36439672e-01
  7.49699366e-01  7.61115516e-01  8.08003050e-01  9.00966532e-01
  9.25715330e-01  9.49239190e-01  9.67455031e-01  1.29626203e+00]
nelec by numeric integration = 146.00000345837384
    CPU time for vxc     38.18 sec, wall time     15.71 sec
E1 = -4118.1931659298225  Ecoul = 1903.9676645400152  Exc = -124.70436211975574
cycle= 10 E= -835.564503018858  delta_E= -1.95e-08  |g|= 7.6e-05  |ddm|= 0.000437
    CPU time for cycle= 10     38.49 sec, wall time     15.76 sec
  HOMO = -0.115772145097561  LUMO = -0.00664732405533835
  mo_energy =
[-1.00420695e+01 -1.00318875e+01 -1.00298000e+01 -1.00272010e+01
 -1.00264571e+01 -1.00262837e+01 -1.00225084e+01 -1.00216282e+01
 -1.00202540e+01 -1.00188724e+01 -1.00183585e+01 -1.00172524e+01
 -1.00170350e+01 -1.00118805e+01 -1.00106234e+01 -1.00100945e+01
 -1.00089508e+01 -1.00084329e+01 -1.00064212e+01 -1.00037492e+01
 -1.00020158e+01 -9.99265130e+00 -8.87457336e-01 -8.47371469e-01
 -8.25708549e-01 -7.90340716e-01 -7.63775247e-01 -7.50751913e-01
 -7.40409728e-01 -7.14182085e-01 -7.04908568e-01 -6.75048115e-01
 -6.41441202e-01 -6.28751470e-01 -6.10580100e-01 -5.79275888e-01
 -5.68985253e-01 -5.60660500e-01 -5.51961115e-01 -5.20081151e-01
 -4.96361622e-01 -4.81963626e-01 -4.72484216e-01 -4.55986468e-01
 -4.44807260e-01 -4.28546724e-01 -4.19932146e-01 -4.11833742e-01
 -3.97875432e-01 -3.95362613e-01 -3.90074788e-01 -3.77124277e-01
 -3.67964430e-01 -3.59095210e-01 -3.52988555e-01 -3.44238750e-01
 -3.35826931e-01 -3.28112341e-01 -3.17615390e-01 -3.13451188e-01
 -2.98077016e-01 -2.89790637e-01 -2.78928387e-01 -2.66945743e-01
 -2.63683881e-01 -2.45842901e-01 -2.39514442e-01 -2.26027271e-01
 -2.17615785e-01 -2.04428471e-01 -1.88992211e-01 -1.52736453e-01
 -1.15772145e-01 -6.64732406e-03  1.79887271e-02  6.20960294e-02
  7.56171113e-02  1.17126883e-01  1.32537562e-01  1.59152634e-01
  1.70421789e-01  2.00448922e-01  2.41967893e-01  2.45919079e-01
  2.48989396e-01  2.69079733e-01  2.87835117e-01  2.99393672e-01
  3.08194991e-01  3.20523057e-01  3.33458220e-01  3.52843924e-01
  3.68302454e-01  3.68631726e-01  3.94294199e-01  4.02408689e-01
  4.11118402e-01  4.32369877e-01  4.40894093e-01  4.58944328e-01
  4.65812265e-01  4.84022666e-01  5.02854046e-01  5.24322624e-01
  5.39888611e-01  5.69163559e-01  5.93836920e-01  6.11534324e-01
  6.14612955e-01  6.24776094e-01  6.47052379e-01  6.63649886e-01
  6.76965860e-01  7.00885211e-01  7.31977013e-01  7.36435445e-01
  7.49697644e-01  7.61116078e-01  8.08003197e-01  9.00964792e-01
  9.25712987e-01  9.49233207e-01  9.67449719e-01  1.29626183e+00]
nelec by numeric integration = 146.00000345838765
    CPU time for vxc     38.01 sec, wall time     15.65 sec
E1 = -4118.193223298646  Ecoul = 1903.9677205021337  Exc = -124.70436071501615
cycle= 11 E= -835.564503020824  delta_E= -1.97e-09  |g|= 3.39e-05  |ddm|= 0.000156
    CPU time for cycle= 11     38.52 sec, wall time     15.73 sec
  HOMO = -0.115771706349919  LUMO = -0.00664627113765686
  mo_energy =
[-1.00420697e+01 -1.00318848e+01 -1.00298048e+01 -1.00271987e+01
 -1.00264504e+01 -1.00262788e+01 -1.00225080e+01 -1.00216326e+01
 -1.00202518e+01 -1.00188725e+01 -1.00183597e+01 -1.00172448e+01
 -1.00170408e+01 -1.00118827e+01 -1.00106244e+01 -1.00100907e+01
 -1.00089492e+01 -1.00084341e+01 -1.00064176e+01 -1.00037493e+01
 -1.00020169e+01 -9.99264649e+00 -8.87455327e-01 -8.47371601e-01
 -8.25708309e-01 -7.90339924e-01 -7.63775057e-01 -7.50751810e-01
 -7.40408720e-01 -7.14181329e-01 -7.04907913e-01 -6.75047315e-01
 -6.41440288e-01 -6.28750601e-01 -6.10579509e-01 -5.79275074e-01
 -5.68985118e-01 -5.60659638e-01 -5.51960834e-01 -5.20080476e-01
 -4.96361552e-01 -4.81962858e-01 -4.72484126e-01 -4.55986167e-01
 -4.44806739e-01 -4.28546262e-01 -4.19931565e-01 -4.11832794e-01
 -3.97874870e-01 -3.95361542e-01 -3.90074826e-01 -3.77123806e-01
 -3.67964520e-01 -3.59094823e-01 -3.52988064e-01 -3.44238853e-01
 -3.35826932e-01 -3.28112721e-01 -3.17614752e-01 -3.13451646e-01
 -2.98077011e-01 -2.89789997e-01 -2.78928214e-01 -2.66945571e-01
 -2.63684225e-01 -2.45842527e-01 -2.39514232e-01 -2.26026566e-01
 -2.17614402e-01 -2.04428226e-01 -1.88991561e-01 -1.52735866e-01
 -1.15771706e-01 -6.64627114e-03  1.79897005e-02  6.20968436e-02
  7.56170352e-02  1.17127623e-01  1.32537679e-01  1.59153262e-01
  1.70422437e-01  2.00450300e-01  2.41968575e-01  2.45919450e-01
  2.48988365e-01  2.69079115e-01  2.87834776e-01  2.99393777e-01
  3.08195378e-01  3.20521962e-01  3.33458353e-01  3.52845310e-01
  3.68303276e-01  3.68631856e-01  3.94293886e-01  4.02408967e-01
  4.11119075e-01  4.32370514e-01  4.40895168e-01  4.58943845e-01
  4.65812663e-01  4.84024112e-01  5.02854544e-01  5.24323246e-01
  5.39888772e-01  5.69164816e-01  5.93837766e-01  6.11533821e-01
  6.14613271e-01  6.24776894e-01  6.47053165e-01  6.63650013e-01
  6.76965837e-01  7.00886605e-01  7.31977357e-01  7.36436378e-01
  7.49696546e-01  7.61116492e-01  8.08003927e-01  9.00966426e-01
  9.25713305e-01  9.49235403e-01  9.67450576e-01  1.29626323e+00]
nelec by numeric integration = 146.00000345838345
    CPU time for vxc     37.67 sec, wall time     15.58 sec
E1 = -4118.193156740861  Ecoul = 1903.9676522164123  Exc = -124.70435898744984
cycle= 12 E= -835.564503021194  delta_E= -3.7e-10  |g|= 1.25e-05  |ddm|= 6.22e-05
    CPU time for cycle= 12     38.20 sec, wall time     15.66 sec
  HOMO = -0.115772570977271  LUMO = -0.00664625439971636
  mo_energy =
[-1.00420716e+01 -1.00318874e+01 -1.00298037e+01 -1.00271979e+01
 -1.00264498e+01 -1.00262779e+01 -1.00225073e+01 -1.00216317e+01
 -1.00202525e+01 -1.00188731e+01 -1.00183607e+01 -1.00172483e+01
 -1.00170378e+01 -1.00118801e+01 -1.00106258e+01 -1.00100912e+01
 -1.00089488e+01 -1.00084314e+01 -1.00064172e+01 -1.00037496e+01
 -1.00020172e+01 -9.99264995e+00 -8.87456607e-01 -8.47371440e-01
 -8.25708175e-01 -7.90339381e-01 -7.63775876e-01 -7.50751244e-01
 -7.40408268e-01 -7.14181571e-01 -7.04908289e-01 -6.75047225e-01
 -6.41440920e-01 -6.28750440e-01 -6.10579679e-01 -5.79275500e-01
 -5.68985086e-01 -5.60659862e-01 -5.51961035e-01 -5.20079909e-01
 -4.96361434e-01 -4.81963479e-01 -4.72483589e-01 -4.55986322e-01
 -4.44807009e-01 -4.28546556e-01 -4.19931629e-01 -4.11832684e-01
 -3.97875128e-01 -3.95362110e-01 -3.90074509e-01 -3.77124084e-01
 -3.67964071e-01 -3.59095188e-01 -3.52988234e-01 -3.44238660e-01
 -3.35826732e-01 -3.28112443e-01 -3.17615079e-01 -3.13451649e-01
 -2.98077118e-01 -2.89789755e-01 -2.78928585e-01 -2.66946223e-01
 -2.63683707e-01 -2.45841880e-01 -2.39513932e-01 -2.26026571e-01
 -2.17615070e-01 -2.04428307e-01 -1.88991553e-01 -1.52735769e-01
 -1.15772571e-01 -6.64625440e-03  1.79899387e-02  6.20965754e-02
  7.56173414e-02  1.17127267e-01  1.32538340e-01  1.59152534e-01
  1.70422655e-01  2.00449384e-01  2.41968227e-01  2.45919721e-01
  2.48989110e-01  2.69079107e-01  2.87835153e-01  2.99393722e-01
  3.08195778e-01  3.20522140e-01  3.33458330e-01  3.52844274e-01
  3.68303861e-01  3.68631445e-01  3.94293995e-01  4.02409360e-01
  4.11118291e-01  4.32370949e-01  4.40894155e-01  4.58944377e-01
  4.65812250e-01  4.84023908e-01  5.02854149e-01  5.24323336e-01
  5.39888643e-01  5.69164322e-01  5.93837048e-01  6.11534588e-01
  6.14613303e-01  6.24776692e-01  6.47053634e-01  6.63649835e-01
  6.76967073e-01  7.00886075e-01  7.31976298e-01  7.36436330e-01
  7.49697629e-01  7.61117541e-01  8.08002931e-01  9.00965220e-01
  9.25713391e-01  9.49234993e-01  9.67451167e-01  1.29626195e+00]
nelec by numeric integration = 146.00000345838333
    CPU time for vxc     37.81 sec, wall time     15.66 sec
E1 = -4118.1931791244215  Ecoul = 1903.9676752167145  Exc = -124.70435960425102
cycle= 13 E= -835.564503021253  delta_E= -5.96e-11  |g|= 3.3e-06  |ddm|= 2.61e-05
    CPU time for cycle= 13     38.43 sec, wall time     15.75 sec
  HOMO = -0.115772409668596  LUMO = -0.00664618505006928
  mo_energy =
[-1.00420702e+01 -1.00318858e+01 -1.00298038e+01 -1.00271987e+01
 -1.00264497e+01 -1.00262784e+01 -1.00225075e+01 -1.00216312e+01
 -1.00202521e+01 -1.00188725e+01 -1.00183596e+01 -1.00172473e+01
 -1.00170395e+01 -1.00118813e+01 -1.00106263e+01 -1.00100912e+01
 -1.00089486e+01 -1.00084335e+01 -1.00064167e+01 -1.00037503e+01
 -1.00020174e+01 -9.99264884e+00 -8.87455900e-01 -8.47371360e-01
 -8.25708210e-01 -7.90339704e-01 -7.63775835e-01 -7.50751466e-01
 -7.40408415e-01 -7.14181500e-01 -7.04907901e-01 -6.75047201e-01
 -6.41440795e-01 -6.28750633e-01 -6.10579672e-01 -5.79275085e-01
 -5.68985206e-01 -5.60659696e-01 -5.51960908e-01 -5.20080205e-01
 -4.96361547e-01 -4.81963149e-01 -4.72484007e-01 -4.55986237e-01
 -4.44807030e-01 -4.28546475e-01 -4.19931590e-01 -4.11832695e-01
 -3.97875224e-01 -3.95361791e-01 -3.90074619e-01 -3.77123948e-01
 -3.67964270e-01 -3.59095105e-01 -3.52988103e-01 -3.44238657e-01
 -3.35826716e-01 -3.28112290e-01 -3.17614744e-01 -3.13451561e-01
 -2.98076968e-01 -2.89789898e-01 -2.78928375e-01 -2.66946186e-01
 -2.63683806e-01 -2.45842091e-01 -2.39514145e-01 -2.26026566e-01
 -2.17614813e-01 -2.04428214e-01 -1.88991459e-01 -1.52735878e-01
 -1.15772410e-01 -6.64618505e-03  1.79897487e-02  6.20967659e-02
  7.56173580e-02  1.17127362e-01  1.32537991e-01  1.59152739e-01
  1.70422422e-01  2.00449758e-01  2.41968489e-01  2.45920033e-01
  2.48988966e-01  2.69079168e-01  2.87835149e-01  2.99394073e-01
  3.08195728e-01  3.20522393e-01  3.33458636e-01  3.52844838e-01
  3.68303462e-01  3.68631257e-01  3.94294086e-01  4.02409249e-01
  4.11118114e-01  4.32370591e-01  4.40894523e-01  4.58944153e-01
  4.65812366e-01  4.84024061e-01  5.02854230e-01  5.24323041e-01
  5.39888636e-01  5.69164521e-01  5.93837286e-01  6.11534419e-01
  6.14613230e-01  6.24776649e-01  6.47053238e-01  6.63649841e-01
  6.76966364e-01  7.00886424e-01  7.31976225e-01  7.36436560e-01
  7.49697257e-01  7.61116773e-01  8.08003519e-01  9.00966011e-01
  9.25713358e-01  9.49235399e-01  9.67451052e-01  1.29626267e+00]
nelec by numeric integration = 146.00000345838387
    CPU time for vxc     37.81 sec, wall time     15.66 sec
E1 = -4118.193174193156  Ecoul = 1903.9676705677275  Exc = -124.70435988652709
Extra cycle  E= -835.564503021251  delta_E= 2.73e-12  |g|= 6.01e-06  |ddm|= 1.37e-05
    CPU time for scf_cycle    586.68 sec, wall time    238.56 sec
    CPU time for SCF    586.68 sec, wall time    238.56 sec
converged SCF energy = -835.564503021251
nelec by numeric integration = 146.00000345838387
    CPU time for vxc     38.21 sec, wall time     15.75 sec
 ** Mulliken pop  **
pop of  0 C 1s            1.99156
pop of  0 C 2s            1.01422
pop of  0 C 2px           1.01425
pop of  0 C 2py           1.02476
pop of  0 C 2pz           1.01586
pop of  1 C 1s            1.99039
pop of  1 C 2s            1.09811
pop of  1 C 2px           1.01593
pop of  1 C 2py           0.96077
pop of  1 C 2pz           0.94075
pop of  2 C 1s            1.99136
pop of  2 C 2s            1.20586
pop of  2 C 2px           0.98790
pop of  2 C 2py           0.90060
pop of  2 C 2pz           0.99333
pop of  3 C 1s            1.99234
pop of  3 C 2s            1.05017
pop of  3 C 2px           1.00442
pop of  3 C 2py           1.00288
pop of  3 C 2pz           1.03234
pop of  4 C 1s            1.99145
pop of  4 C 2s            1.22495
pop of  4 C 2px           0.96804
pop of  4 C 2py           0.91886
pop of  4 C 2pz           0.92413
pop of  5 C 1s            1.99108
pop of  5 C 2s            1.16135
pop of  5 C 2px           0.96635
pop of  5 C 2py           0.93921
pop of  5 C 2pz           0.95579
pop of  6 C 1s            1.99089
pop of  6 C 2s            1.17690
pop of  6 C 2px           0.99298
pop of  6 C 2py           0.97405
pop of  6 C 2pz           0.94939
pop of  7 C 1s            1.99093
pop of  7 C 2s            1.18037
pop of  7 C 2px           0.99299
pop of  7 C 2py           0.95554
pop of  7 C 2pz           0.95695
pop of  8 C 1s            1.99098
pop of  8 C 2s            1.10963
pop of  8 C 2px           0.98166
pop of  8 C 2py           0.94063
pop of  8 C 2pz           0.96458
pop of  9 C 1s            1.99014
pop of  9 C 2s            1.00948
pop of  9 C 2px           1.03736
pop of  9 C 2py           1.00969
pop of  9 C 2pz           1.02706
pop of  10 C 1s           1.99133
pop of  10 C 2s           1.21658
pop of  10 C 2px          0.96559
pop of  10 C 2py          0.92798
pop of  10 C 2pz          0.93685
pop of  11 C 1s           1.99105
pop of  11 C 2s           1.13443
pop of  11 C 2px          0.98322
pop of  11 C 2py          0.95692
pop of  11 C 2pz          0.96474
pop of  12 C 1s           1.99061
pop of  12 C 2s           1.12330
pop of  12 C 2px          0.98385
pop of  12 C 2py          0.94974
pop of  12 C 2pz          0.96892
pop of  13 C 1s           1.99078
pop of  13 C 2s           1.15842
pop of  13 C 2px          0.98295
pop of  13 C 2py          0.92539
pop of  13 C 2pz          0.94785
pop of  14 C 1s           1.99112
pop of  14 C 2s           1.17368
pop of  14 C 2px          0.99960
pop of  14 C 2py          0.94284
pop of  14 C 2pz          0.94604
pop of  15 C 1s           1.99109
pop of  15 C 2s           1.11076
pop of  15 C 2px          1.00937
pop of  15 C 2py          0.95978
pop of  15 C 2pz          1.02693
pop of  16 C 1s           1.99111
pop of  16 C 2s           1.18009
pop of  16 C 2px          0.96619
pop of  16 C 2py          0.93507
pop of  16 C 2pz          0.91725
pop of  17 C 1s           1.99083
pop of  17 C 2s           1.10719
pop of  17 C 2px          0.99175
pop of  17 C 2py          0.97087
pop of  17 C 2pz          0.96068
pop of  18 C 1s           1.99172
pop of  18 C 2s           1.11548
pop of  18 C 2px          1.02760
pop of  18 C 2py          0.96277
pop of  18 C 2pz          1.04849
pop of  19 C 1s           1.99098
pop of  19 C 2s           1.15724
pop of  19 C 2px          0.97320
pop of  19 C 2py          0.95017
pop of  19 C 2pz          1.02430
pop of  20 C 1s           1.99089
pop of  20 C 2s           1.15075
pop of  20 C 2px          0.96584
pop of  20 C 2py          0.98550
pop of  20 C 2pz          0.94252
pop of  21 C 1s           1.99054
pop of  21 C 2s           1.12832
pop of  21 C 2px          0.98704
pop of  21 C 2py          1.01342
pop of  21 C 2pz          0.96899
pop of  22 H 1s           0.90808
pop of  23 H 1s           0.89534
pop of  24 H 1s           0.95483
pop of  25 H 1s           0.94499
pop of  26 H 1s           0.92991
pop of  27 H 1s           0.91753
pop of  28 H 1s           0.93448
pop of  29 H 1s           0.94555
pop of  30 H 1s           0.95391
pop of  31 H 1s           0.90368
pop of  32 H 1s           0.87039
pop of  33 H 1s           0.89004
pop of  34 H 1s           0.94175
pop of  35 H 1s           0.89983
 ** Mulliken atomic charges  **
charge of    0C =     -0.06064
charge of    1C =     -0.00595
charge of    2C =     -0.07906
charge of    3C =     -0.08214
charge of    4C =     -0.02743
charge of    5C =     -0.01378
charge of    6C =     -0.08423
charge of    7C =     -0.07679
charge of    8C =      0.01252
charge of    9C =     -0.07372
charge of   10C =     -0.03832
charge of   11C =     -0.03035
charge of   12C =     -0.01642
charge of   13C =     -0.00540
charge of   14C =     -0.05329
charge of   15C =     -0.09792
charge of   16C =      0.01029
charge of   17C =     -0.02133
charge of   18C =     -0.14605
charge of   19C =     -0.09588
charge of   20C =     -0.03550
charge of   21C =     -0.08831
charge of   22H =      0.09192
charge of   23H =      0.10466
charge of   24H =      0.04517
charge of   25H =      0.05501
charge of   26H =      0.07009
charge of   27H =      0.08247
charge of   28H =      0.06552
charge of   29H =      0.05445
charge of   30H =      0.04609
charge of   31H =      0.09632
charge of   32H =      0.12961
charge of   33H =      0.10996
charge of   34H =      0.05825
charge of   35H =      0.10017
Dipole moment(X, Y, Z, Debye): -0.00212, -0.84583, -0.01347
nelec by numeric integration = 146.00000345838387
    CPU time for vxc     37.42 sec, wall time     15.60 sec
E1 = -4118.193174193156  Ecoul = 1903.9676705677273  Exc = -124.70435988652707
nelec by numeric integration = 146.00000345838387
    CPU time for vxc     37.27 sec, wall time     15.55 sec
E1 = -4118.193174193156  Ecoul = 1903.9676705677275  Exc = -124.70435988652707
