System: uname_result(system='Linux', node='cosmopc18', release='5.15.0-97-generic', version='#107-Ubuntu SMP Wed Feb 7 13:26:48 UTC 2024', machine='x86_64')  Threads 4
Python 3.11.8 (main, Feb 26 2024, 21:39:34) [GCC 11.2.0]
numpy 1.26.4  scipy 1.11.4
Date: Tue Apr  9 17:55:57 2024
PySCF version 2.3.0
PySCF path  /home/saade/miniconda3/envs/tutorial/lib/python3.11/site-packages/pyscf

[ENV] PYSCFAD_BACKEND torch
[CONFIG] conf_file None
[INPUT] verbose = 5
[INPUT] max_memory = 4000 
[INPUT] num. atoms = 36
[INPUT] num. electrons = 146
[INPUT] charge = 0
[INPUT] spin (= nelec alpha-beta = 2S) = 0
[INPUT] symmetry False subgroup None
[INPUT] Mole.unit = angstrom
[INPUT] Symbol           X                Y                Z      unit          X                Y                Z       unit  Magmom
[INPUT]  1 C     -0.091280000000   3.691043000000   0.560437000000 AA   -0.172494200650   6.975060383993   1.059072440073 Bohr   0.0
[INPUT]  2 C     -0.022026000000   3.557335000000  -0.718528000000 AA   -0.041623107620   6.722388883330  -1.357821132831 Bohr   0.0
[INPUT]  3 C     -0.037346000000   5.030338000000   1.360351000000 AA   -0.070573711848   9.505961133992   2.570690823278 Bohr   0.0
[INPUT]  4 C     -0.058873000000   2.531522000000   1.561910000000 AA   -0.111253846132   4.783883258311   2.951582131219 Bohr   0.0
[INPUT]  5 C     -0.025337000000   4.918038000000  -1.373761000000 AA   -0.047879990818   9.293744890204  -2.596032050609 Bohr   0.0
[INPUT]  6 C     -0.058274000000   2.431228000000  -1.333283000000 AA   -0.110121900183   4.594355066374  -2.519539716538 Bohr   0.0
[INPUT]  7 C     -0.125897000000   6.263433000000  -0.725331000000 AA   -0.237910849904  11.836172969563  -1.370676939657 Bohr   0.0
[INPUT]  8 C     -0.075529000000   6.108672000000   0.780244000000 AA   -0.142729124462  11.543717064799   1.474447470335 Bohr   0.0
[INPUT]  9 C     -0.027226000000   1.388184000000   0.837333000000 AA   -0.051449683467   2.623287570503   1.582330045060 Bohr   0.0
[INPUT] 10 C     -0.006992000000   1.095285000000  -0.808668000000 AA   -0.013212965063   2.069788678344  -1.528161045700 Bohr   0.0
[INPUT] 11 C     -0.151884000000   0.095038000000   1.300816000000 AA   -0.287019162703   0.179595791426   2.458185978452 Bohr   0.0
[INPUT] 12 C      0.032651000000   0.147114000000  -1.408921000000 AA    0.061701447693   0.278005169089  -2.662474821148 Bohr   0.0
[INPUT] 13 C      0.007142000000  -1.187777000000   0.690867000000 AA    0.013496423982  -2.244573227058   1.305549418500 Bohr   0.0
[INPUT] 14 C      0.044997000000  -1.333249000000  -0.526628000000 AA    0.085032006427  -2.519475465850  -0.995182689527 Bohr   0.0
[INPUT] 15 C     -0.060761000000  -2.391301000000   1.250513000000 AA   -0.114821649055  -4.518903971399   2.363127085208 Bohr   0.0
[INPUT] 16 C     -0.132829000000  -2.341115000000  -1.525036000000 AA   -0.251010431400  -4.424066176111  -2.881900370102 Bohr   0.0
[INPUT] 17 C      0.153234000000  -3.611195000000   0.726374000000 AA    0.289570292972  -6.824169532399   1.372647924005 Bohr   0.0
[INPUT] 18 C      0.039535000000  -3.698906000000  -0.704279000000 AA    0.074710322335  -6.989919300510  -1.330894425283 Bohr   0.0
[INPUT] 19 C      0.098670000000  -5.004577000000   1.412463000000 AA    0.186459276711  -9.457279899297   2.669168231082 Bohr   0.0
[INPUT] 20 C     -0.041350000000  -5.036544000000  -1.293103000000 AA   -0.078140175251  -9.517688774321  -2.443610520853 Bohr   0.0
[INPUT] 21 C     -0.062288000000  -6.124530000000   0.872726000000 AA   -0.117707260847 -11.573684341682   1.649213121787 Bohr   0.0
[INPUT] 22 C     -0.087466000000  -6.172404000000  -0.501350000000 AA   -0.165286785211 -11.664153090170  -0.947414192551 Bohr   0.0
[INPUT] 23 H      0.080551000000   4.846181000000   2.431355000000 AA    0.152219329060   9.157954840071   4.594595061592 Bohr   0.0
[INPUT] 24 H      0.073936000000   2.386732000000   2.559872000000 AA    0.139718790746   4.510269812735   4.837456993943 Bohr   0.0
[INPUT] 25 H      0.055537000000   4.794376000000  -2.458300000000 AA    0.104949719780   9.060057578188  -4.645513732018 Bohr   0.0
[INPUT] 26 H     -0.066722000000   2.469198000000  -2.388526000000 AA   -0.126086306483   4.666107967324  -4.513659981403 Bohr   0.0
[INPUT] 27 H      0.095457000000   7.132239000000  -1.356171000000 AA    0.180387586673  13.477978364942  -2.562791768078 Bohr   0.0
[INPUT] 28 H     -0.175528000000   7.043661000000   1.090754000000 AA   -0.331699847193  13.310590204280   2.061226329274 Bohr   0.0
[INPUT] 29 H      0.151716000000  -0.008344000000   2.558630000000 AA    0.286701688715  -0.015767874783   4.835109954096 Bohr   0.0
[INPUT] 30 H     -0.092770000000   0.195224000000  -2.563697000000 AA   -0.175309892576   0.368919892942  -4.844685196369 Bohr   0.0
[INPUT] 31 H     -0.067757000000  -2.512151000000   2.376385000000 AA   -0.128042173022  -4.747277373552   4.490716816525 Bohr   0.0
[INPUT] 32 H     -0.026571000000  -2.539534000000  -2.540678000000 AA   -0.050211912856  -4.799023744021  -4.801185590708 Bohr   0.0
[INPUT] 33 H     -0.118371000000  -4.809441000000   2.512615000000 AA   -0.223688771091  -9.088526302254   4.748154206474 Bohr   0.0
[INPUT] 34 H      0.049272000000  -4.966312000000  -2.603834000000 AA    0.093110585610  -9.384969529141  -4.920533133831 Bohr   0.0
[INPUT] 35 H     -0.071357000000  -6.927380000000   1.345224000000 AA   -0.134845187071 -13.090850960790   2.542104936192 Bohr   0.0
[INPUT] 36 H     -0.023159000000  -7.049901000000  -1.183527000000 AA   -0.043764167319 -13.322382095297  -2.236541891028 Bohr   0.0
[INPUT] ---------------- BASIS SET ---------------- 
[INPUT] l, kappa, [nprim/nctr], expnt,             c_1 c_2 ...
[INPUT] H
[INPUT] 0    0    [3    /1   ]  3.42525091        0.15432897
                                0.62391373        0.53532814
                                0.1688554         0.44463454
[INPUT] C
[INPUT] 0    0    [3    /1   ]  71.616837         0.15432897
                                13.045096         0.53532814
                                3.5305122         0.44463454
[INPUT] 0    0    [3    /1   ]  2.9412494         -0.09996723
                                0.6834831         0.39951283
                                0.2222899         0.70011547
[INPUT] 1    0    [3    /1   ]  2.9412494         0.15591627
                                0.6834831         0.60768372
                                0.2222899         0.39195739

nuclear repulsion = 1494.98093217912
number of shells = 80
number of NR pGTOs = 372
number of NR cGTOs = 124
basis = sto3g
ecp = {}
CPU time:     72283.64
atom C rad-grids = 99, ang-grids = [ 50  50  50  50  50  50  50  50  50  50  50  50  50  50  50  50  50  50
  50  50  50  50  50  50  50  50  50  50  50  50  50  86  86  86  86  86
  86  86  86  86  86  86  86 434 434 434 434 434 434 434 434 434 590 590
 590 590 590 590 590 590 590 590 590 590 590 590 590 590 590 590 590 590
 590 590 590 590 590 590 590 434 434 434 434 434 434 434 434 434 434 434
 434 434 434 434 434 434 434 434 434]
atom H rad-grids = 99, ang-grids = [ 50  50  50  50  50  50  50  50  50  50  50  50  50  50  50  50  50  50
  50  50  50  50  50  50  50  50  50  50  86  86  86  86  86  86  86 434
 434 434 434 434 434 434 434 590 590 590 590 590 590 590 590 590 590 590
 590 590 590 590 590 590 590 590 590 590 590 590 590 590 590 434 434 434
 434 434 434 434 434 434 434 434 434 434 434 434 434 434 434 434 434 434
 434 434 434 434 434 434 434 434 434]
tot_boxes 5270, boxes in each direction [ 8 29 15]
Padding 0 grids
tot grids = 1157832


******** <class 'pyscf.dft.rks.RKS'> ********
method = RKS
initial guess = minao
damping factor = 0
level_shift factor = 0
DIIS = <class 'pyscf.scf.diis.CDIIS'>
diis_start_cycle = 1
diis_space = 8
SCF conv_tol = 1e-10
SCF conv_tol_grad = None
SCF max_cycles = 50
direct_scf = True
direct_scf_tol = 1e-13
chkfile to save SCF result = /home/saade/mlelec/tutorials/tmpn70bdr45
max_memory 4000 MB (current use 690 MB)
XC library pyscf.dft.libxc version 6.1.0
    S. Lehtola, C. Steigemann, M. J.T. Oliveira, and M. A.L. Marques.,  SoftwareX 7, 1–5 (2018)
XC functionals = b3lypg
    P. J. Stephens, F. J. Devlin, C. F. Chabalowski, and M. J. Frisch.,  J. Phys. Chem. 98, 11623 (1994)
radial grids: 
    Treutler-Ahlrichs [JCP 102, 346 (1995); DOI:10.1063/1.469408] (M4) radial grids
    
becke partition: Becke, JCP 88, 2547 (1988); DOI:10.1063/1.454033
pruning grids: <function nwchem_prune at 0x7f9db5616ca0>
grids dens level: 3
symmetrized grids: False
atomic radii adjust function: <function treutler_atomic_radii_adjust at 0x7f9db5617380>
User specified grid scheme (99, 590)
small_rho_cutoff = 1e-07
Set gradient conv threshold to 1e-05
Initial guess from minao.
nelec by numeric integration = 145.2689257536502
    CPU time for vxc     37.29 sec, wall time     15.74 sec
E1 = -4090.0983274809028  Ecoul = 1879.701116669822  Exc = -126.07272015822582
init E= -841.488998790182
cond(S) = 26.54289624422859
    CPU time for initialize scf     46.78 sec, wall time     18.04 sec
  HOMO = -0.209354765301671  LUMO = -0.156837907696814
  mo_energy =
[-1.01490243e+01 -1.01475258e+01 -1.01370088e+01 -1.01293311e+01
 -1.01282187e+01 -1.01178358e+01 -1.01168139e+01 -1.01148408e+01
 -1.01141278e+01 -1.01060677e+01 -1.01012172e+01 -1.01007314e+01
 -1.00977194e+01 -1.00966084e+01 -1.00951849e+01 -1.00931486e+01
 -1.00882775e+01 -1.00859342e+01 -1.00792045e+01 -1.00739391e+01
 -1.00723972e+01 -1.00656090e+01 -1.11060444e+00 -1.07613693e+00
 -1.03560372e+00 -1.01094418e+00 -9.58460776e-01 -9.51481226e-01
 -9.05434689e-01 -8.86197479e-01 -8.52526942e-01 -8.34120325e-01
 -8.04699836e-01 -7.77950764e-01 -7.23045660e-01 -7.00845440e-01
 -6.97127269e-01 -6.74461296e-01 -6.52182873e-01 -6.40173672e-01
 -5.97382157e-01 -5.83636876e-01 -5.67156166e-01 -5.52762297e-01
 -5.47142749e-01 -5.36875531e-01 -5.24756303e-01 -5.13851663e-01
 -4.97086363e-01 -4.87316798e-01 -4.82584069e-01 -4.63144690e-01
 -4.58504183e-01 -4.52978582e-01 -4.45270123e-01 -4.31397906e-01
 -4.22076742e-01 -4.15944627e-01 -4.11754878e-01 -4.01374860e-01
 -3.88289797e-01 -3.69369456e-01 -3.60958259e-01 -3.53988830e-01
 -3.43966176e-01 -3.38428822e-01 -3.32660857e-01 -3.07433671e-01
 -3.01282071e-01 -2.84310086e-01 -2.64212426e-01 -2.47714105e-01
 -2.09354765e-01 -1.56837908e-01 -9.85135844e-02 -5.84948549e-02
 -3.73564332e-02 -1.77819160e-02  2.22558072e-03  1.16032627e-02
  4.54661511e-02  6.24971358e-02  1.01441063e-01  1.11727760e-01
  1.27952257e-01  1.42849221e-01  1.48949863e-01  1.63189448e-01
  1.76282753e-01  1.83560396e-01  1.92005620e-01  2.09250647e-01
  2.21405337e-01  2.48623299e-01  2.68339773e-01  2.79384735e-01
  2.89069663e-01  2.96483961e-01  3.05910223e-01  3.13849297e-01
  3.33419458e-01  3.56704115e-01  3.76456679e-01  3.81570418e-01
  4.04706457e-01  4.32330459e-01  4.57419568e-01  4.65477968e-01
  4.80448647e-01  4.91710651e-01  5.01339286e-01  5.24179602e-01
  5.33742863e-01  5.61885340e-01  5.88585485e-01  6.06950734e-01
  6.38085693e-01  6.46113049e-01  6.77196752e-01  7.08044662e-01
  7.51215900e-01  7.89530797e-01  7.99321479e-01  9.48809151e-01]
nelec by numeric integration = 145.9999980261968
    CPU time for vxc     38.13 sec, wall time     15.77 sec
E1 = -4105.128831945465  Ecoul = 1899.1558782308944  Exc = -124.72999796561018
cycle= 1 E= -835.722019501057  delta_E= 5.77  |g|= 0.285  |ddm|= 9.29
    CPU time for cycle= 1     38.47 sec, wall time     15.82 sec
  HOMO = -0.0844813680858627  LUMO = 0.00273085232966169
  mo_energy =
[-1.00253217e+01 -1.00184190e+01 -1.00141445e+01 -1.00100923e+01
 -1.00085935e+01 -1.00060954e+01 -1.00048685e+01 -1.00038580e+01
 -1.00014579e+01 -9.99694632e+00 -9.99356415e+00 -9.99170389e+00
 -9.99113711e+00 -9.99085132e+00 -9.98696567e+00 -9.98621609e+00
 -9.97144288e+00 -9.96955877e+00 -9.96933091e+00 -9.93444866e+00
 -9.92795149e+00 -9.88428691e+00 -8.43705548e-01 -8.17702028e-01
 -8.07605265e-01 -7.65809769e-01 -7.36624888e-01 -7.27263877e-01
 -7.14794245e-01 -6.98235755e-01 -6.75640131e-01 -6.65289124e-01
 -6.25821353e-01 -6.11386922e-01 -5.81902268e-01 -5.63796364e-01
 -5.53417696e-01 -5.48520854e-01 -5.16806195e-01 -5.05589551e-01
 -4.84247853e-01 -4.64461693e-01 -4.53108578e-01 -4.45063529e-01
 -4.32613043e-01 -4.23647021e-01 -4.11935845e-01 -3.98576304e-01
 -3.85545220e-01 -3.74867897e-01 -3.61632805e-01 -3.57644317e-01
 -3.55413701e-01 -3.49006295e-01 -3.40985242e-01 -3.31943450e-01
 -3.20908131e-01 -3.11875960e-01 -3.06745292e-01 -2.92199368e-01
 -2.75380001e-01 -2.68117157e-01 -2.62302052e-01 -2.49549465e-01
 -2.38880754e-01 -2.20859912e-01 -2.19683503e-01 -2.07338111e-01
 -1.90510135e-01 -1.68646864e-01 -1.59826028e-01 -1.47994749e-01
 -8.44813681e-02  2.73085233e-03  4.51204468e-02  7.91029185e-02
  1.09600799e-01  1.22176880e-01  1.67540700e-01  1.74093670e-01
  2.27426448e-01  2.28679724e-01  2.46854497e-01  2.61615960e-01
  2.80342457e-01  2.92460520e-01  2.98702995e-01  3.11460809e-01
  3.25039458e-01  3.34147251e-01  3.65723289e-01  3.68584414e-01
  3.74079424e-01  3.92239516e-01  4.05072779e-01  4.09882377e-01
  4.21432889e-01  4.42549914e-01  4.55524102e-01  4.58242444e-01
  4.77779945e-01  4.94037091e-01  5.17578104e-01  5.30364049e-01
  5.45651166e-01  5.72197574e-01  5.98015558e-01  6.21411621e-01
  6.23616010e-01  6.27914003e-01  6.57929350e-01  6.74961428e-01
  7.03931004e-01  7.05505678e-01  7.41139533e-01  7.57393527e-01
  7.87898161e-01  8.18413673e-01  8.39371145e-01  8.87399922e-01
  8.99236746e-01  9.60033430e-01  9.66639919e-01  1.19248945e+00]
nelec by numeric integration = 145.99999797610567
    CPU time for vxc     37.70 sec, wall time     15.64 sec
E1 = -4099.970046267592  Ecoul = 1893.8641444602001  Exc = -124.58537462886989
cycle= 2 E= -835.710344257137  delta_E= 0.0117  |g|= 0.339  |ddm|= 1.04
    CPU time for cycle= 2     38.10 sec, wall time     15.70 sec
  HOMO = -0.105905530940812  LUMO = -0.0185675364597047
  mo_energy =
[-10.0435161  -10.03388448 -10.03152883 -10.02857883 -10.02827819
 -10.02769211 -10.01497557 -10.01395795 -10.0123306  -10.00732892
 -10.00384857 -10.00358918 -10.00174722 -10.00148337 -10.00037713
  -9.9998513   -9.99972223  -9.99819541  -9.99015985  -9.97846451
  -9.97432557  -9.97299372  -0.86157464  -0.84512412  -0.81412027
  -0.79808561  -0.7601219   -0.74651731  -0.72095492  -0.70685676
  -0.68201907  -0.67141876  -0.65382542  -0.62475801  -0.58649513
  -0.57850384  -0.56177345  -0.54956866  -0.5318139   -0.51653018
  -0.49153153  -0.4793693   -0.46420108  -0.45193594  -0.44531261
  -0.4396863   -0.42798616  -0.41753524  -0.40018667  -0.38885532
  -0.37596358  -0.37340683  -0.36524219  -0.35651485  -0.35476454
  -0.34519787  -0.33652563  -0.32483957  -0.31521888  -0.30166324
  -0.29352973  -0.28380837  -0.26529479  -0.25814696  -0.25338216
  -0.24707406  -0.23827855  -0.21062769  -0.20303945  -0.19212247
  -0.17208529  -0.15502982  -0.10590553  -0.01856754   0.03819668
   0.07263181   0.10321588   0.12033757   0.14354738   0.16341293
   0.19440676   0.20841208   0.24080616   0.24855938   0.25847501
   0.28013369   0.28905592   0.3015533    0.3181814    0.32546689
   0.34019851   0.3481859    0.36271954   0.38418976   0.40383694
   0.40821601   0.42457484   0.42945687   0.43866344   0.45795342
   0.47343917   0.47481089   0.50001804   0.52043106   0.54157021
   0.56228509   0.58807752   0.60505213   0.61800919   0.62718087
   0.63612629   0.66057996   0.67562881   0.70488241   0.73465788
   0.75585179   0.78134392   0.78762381   0.82343846   0.84923044
   0.89530485   0.94135013   0.94382147   1.10732034]
nelec by numeric integration = 145.99999797781527
    CPU time for vxc     37.84 sec, wall time     15.68 sec
E1 = -4101.900191214909  Ecoul = 1895.8079267954652  Exc = -124.62134720717647
cycle= 3 E= -835.732679447496  delta_E= -0.0223  |g|= 0.245  |ddm|= 0.963
    CPU time for cycle= 3     38.32 sec, wall time     15.76 sec
  HOMO = -0.109934873622131  LUMO = -0.0241369593409457
  mo_energy =
[-10.05030773 -10.03755687 -10.02697482 -10.02563724 -10.02448518
 -10.0222872  -10.01943108 -10.01889754 -10.01688709 -10.01620471
 -10.01527296 -10.01416305 -10.01311307 -10.01298931 -10.01189652
 -10.00885863 -10.0072505  -10.00483803 -10.00400637 -10.00107472
  -9.9956483   -9.99327163  -0.87154047  -0.84197651  -0.82080658
  -0.79922756  -0.76208136  -0.7582703   -0.72985232  -0.71402953
  -0.68761275  -0.67339722  -0.64807442  -0.63555992  -0.59492271
  -0.57515374  -0.56994627  -0.55561806  -0.53237896  -0.52360816
  -0.49654257  -0.47979707  -0.46686275  -0.45687288  -0.45049464
  -0.43942347  -0.4325843   -0.41826338  -0.40827482  -0.39117976
  -0.38253769  -0.37458899  -0.36911726  -0.36114634  -0.35606939
  -0.34831736  -0.33720452  -0.33043926  -0.32152942  -0.30753926
  -0.29793853  -0.28560579  -0.26886521  -0.26728481  -0.26143319
  -0.24992799  -0.24564351  -0.21811007  -0.21198106  -0.19715452
  -0.1757293   -0.1590344   -0.10993487  -0.02413696   0.03100255
   0.07216008   0.09482538   0.11270148   0.14328588   0.15034687
   0.18912652   0.20394293   0.2374879    0.24571664   0.25381302
   0.27519986   0.28425604   0.29827581   0.31051414   0.32257895
   0.33115884   0.34998599   0.35983169   0.37995083   0.39967039
   0.40721404   0.41724159   0.43287958   0.43916082   0.44819402
   0.46350468   0.47370995   0.50747861   0.51349892   0.53458442
   0.56237902   0.58961242   0.59840381   0.60973554   0.62002823
   0.63693242   0.66216814   0.6677387    0.69400842   0.72250685
   0.73943574   0.77313424   0.7916466    0.8128707    0.85275864
   0.88525885   0.92799056   0.94206639   1.10934869]
nelec by numeric integration = 145.99999800965497
    CPU time for vxc     37.88 sec, wall time     15.66 sec
E1 = -4102.160470972954  Ecoul = 1896.0560691680237  Exc = -124.63081747676517
cycle= 4 E= -835.754287102571  delta_E= -0.0216  |g|= 0.0805  |ddm|= 0.53
    CPU time for cycle= 4     38.53 sec, wall time     15.76 sec
  HOMO = -0.110256064630563  LUMO = -0.0243373315832504
  mo_energy =
[-10.03970322 -10.03442021 -10.03373046 -10.03221192 -10.02547147
 -10.02121683 -10.02058367 -10.01895568 -10.01811576 -10.01690465
 -10.01521474 -10.01442338 -10.01437835 -10.01422168 -10.01079988
 -10.00951809 -10.00914685 -10.00813655 -10.00634485 -10.00317255
 -10.00192224 -10.00031244  -0.86657038  -0.8460077   -0.82140251
  -0.79893218  -0.7641531   -0.75756795  -0.73001781  -0.71352403
  -0.68829027  -0.67609766  -0.65064725  -0.6355141   -0.59383942
  -0.57949765  -0.56828348  -0.5554289   -0.53422129  -0.52290365
  -0.49596325  -0.48107717  -0.46651319  -0.45774793  -0.44980374
  -0.4413962   -0.43152987  -0.4203856   -0.40764286  -0.39173325
  -0.37940054  -0.37594219  -0.37076995  -0.36066014  -0.3584778
  -0.34889314  -0.33925536  -0.33002006  -0.32165566  -0.30651387
  -0.29780945  -0.2894081   -0.27159873  -0.26713477  -0.26188733
  -0.25240196  -0.24582153  -0.21878849  -0.21111793  -0.19598588
  -0.17865705  -0.16138592  -0.11025606  -0.02433733   0.03068628
   0.06713758   0.09502517   0.11174181   0.14005814   0.15158755
   0.1922863    0.20506935   0.2365987    0.24648806   0.25655239
   0.27634557   0.28197642   0.29655174   0.31042025   0.31962833
   0.33291796   0.34543589   0.3586103    0.38071297   0.39945318
   0.40436175   0.41748103   0.42996736   0.43833692   0.4500146
   0.46584054   0.47128542   0.50480746   0.51285435   0.53399252
   0.55994154   0.58664192   0.59806658   0.61041061   0.61917697
   0.63441416   0.66029185   0.66623838   0.69434732   0.72304772
   0.74261166   0.77412214   0.78507682   0.81598409   0.84807939
   0.88547125   0.93377251   0.93621104   1.11522646]
nelec by numeric integration = 145.99999799540328
    CPU time for vxc     37.64 sec, wall time     15.63 sec
E1 = -4102.162277443339  Ecoul = 1896.0568353624722  Exc = -124.63189032456137
cycle= 5 E= -835.756400226304  delta_E= -0.00211  |g|= 0.0261  |ddm|= 0.151
    CPU time for cycle= 5     38.19 sec, wall time     15.72 sec
  HOMO = -0.109945749222558  LUMO = -0.0235607917189937
  mo_energy =
[-10.0427234  -10.035654   -10.03039741 -10.02874046 -10.02398698
 -10.02022799 -10.01946409 -10.01934168 -10.01885801 -10.01489431
 -10.01414511 -10.01092935 -10.01043164 -10.01034685 -10.00950363
 -10.00900034 -10.00772951 -10.00755761 -10.00689074 -10.00370097
 -10.00230835  -9.99898757  -0.86760816  -0.84429832  -0.82083099
  -0.79735193  -0.76168028  -0.75661926  -0.72960392  -0.71372773
  -0.68780264  -0.67529008  -0.64941441  -0.63491737  -0.5939655
  -0.57801288  -0.56854906  -0.55535629  -0.53262526  -0.52255947
  -0.49572346  -0.48021899  -0.46627639  -0.45680358  -0.44901368
  -0.44041102  -0.43118344  -0.41882895  -0.40775511  -0.39089034
  -0.37975668  -0.37551918  -0.36989755  -0.36031744  -0.35755743
  -0.34901004  -0.33871233  -0.33031098  -0.32125162  -0.30645759
  -0.29654857  -0.28831598  -0.27014468  -0.26630157  -0.26158306
  -0.25023002  -0.24537773  -0.2184521   -0.21143495  -0.19572618
  -0.17786423  -0.16095937  -0.10994575  -0.02356079   0.03083104
   0.06833835   0.09492195   0.11208135   0.14216638   0.15271126
   0.19287282   0.20592439   0.23742974   0.24658646   0.25661162
   0.27644762   0.28293826   0.29726797   0.31117986   0.32102645
   0.33288038   0.34741546   0.35897141   0.38059583   0.39955347
   0.40547797   0.41735559   0.43110087   0.43872427   0.44933083
   0.46582442   0.47312876   0.50534779   0.51301557   0.53414647
   0.56043434   0.58783906   0.59864076   0.61037581   0.61972963
   0.63677508   0.66168427   0.6670664    0.69511749   0.72405267
   0.74235723   0.77395703   0.78746328   0.81521405   0.85003818
   0.88570578   0.93209915   0.93961121   1.11669088]
nelec by numeric integration = 145.9999979997826
    CPU time for vxc     37.67 sec, wall time     15.63 sec
E1 = -4102.14564893474  Ecoul = 1896.0379267764436  Exc = -124.62981188964646
cycle= 6 E= -835.756601868819  delta_E= -0.000202  |g|= 0.0115  |ddm|= 0.0511
    CPU time for cycle= 6     38.04 sec, wall time     15.69 sec
  HOMO = -0.109659429736538  LUMO = -0.023100125950849
  mo_energy =
[-10.04157982 -10.03441928 -10.02928947 -10.02833945 -10.02358358
 -10.01999419 -10.01922945 -10.01812828 -10.01766115 -10.01513481
 -10.01349134 -10.01086687 -10.01060539 -10.01039715 -10.00977878
 -10.00829684 -10.00742996 -10.0061271  -10.00554501 -10.00305723
 -10.00118661 -10.00049069  -0.86685785  -0.84386367  -0.8203251
  -0.79744888  -0.76176075  -0.75635356  -0.72900878  -0.71315557
  -0.68735567  -0.674853    -0.64917977  -0.63446873  -0.59342831
  -0.57770072  -0.56804436  -0.55490994  -0.53263021  -0.52218341
  -0.49539091  -0.48000696  -0.4660677   -0.45657427  -0.44888129
  -0.44025826  -0.43112434  -0.41876799  -0.40718635  -0.39074034
  -0.37928216  -0.37522977  -0.3695745   -0.36017131  -0.35719531
  -0.34868154  -0.33817923  -0.32991109  -0.32089601  -0.30612237
  -0.29657498  -0.28782915  -0.26990407  -0.26608006  -0.26121692
  -0.2502613   -0.24507067  -0.2179579   -0.21076841  -0.19552415
  -0.17740206  -0.16049066  -0.10965943  -0.02310013   0.03137079
   0.0689019    0.09561217   0.11261289   0.14229496   0.15286854
   0.19286925   0.20597692   0.23762847   0.24658082   0.25675897
   0.27688633   0.28327803   0.29780832   0.31146866   0.32131814
   0.33326609   0.34768344   0.35938076   0.38093532   0.40002641
   0.40566636   0.41791786   0.43137      0.43893402   0.44992405
   0.46622304   0.47288179   0.5056097    0.51347817   0.53475319
   0.56107541   0.58798985   0.59902909   0.61095328   0.62022238
   0.63661285   0.66182824   0.66742013   0.69543583   0.72443897
   0.74298491   0.7746623    0.78786435   0.81603789   0.85036817
   0.88634795   0.93297425   0.93962043   1.11587012]
nelec by numeric integration = 145.9999979976212
    CPU time for vxc     38.24 sec, wall time     15.77 sec
E1 = -4102.096804210998  Ecoul = 1895.988288969483  Exc = -124.62906405536197
cycle= 7 E= -835.756647117753  delta_E= -4.52e-05  |g|= 0.00269  |ddm|= 0.0184
    CPU time for cycle= 7     38.93 sec, wall time     15.88 sec
  HOMO = -0.10968370650565  LUMO = -0.0230760351790154
  mo_energy =
[-10.04148005 -10.03410999 -10.02972957 -10.02875079 -10.02358826
 -10.02014385 -10.01930011 -10.01813794 -10.01769292 -10.01539055
 -10.01339669 -10.01101835 -10.01074505 -10.00991791 -10.00983415
 -10.00796524 -10.00737231 -10.00623209 -10.00566261 -10.00234752
 -10.00111681 -10.00067877  -0.86680029  -0.84395748  -0.82034818
  -0.79747157  -0.76180198  -0.75642247  -0.72903258  -0.71311696
  -0.68732086  -0.67481544  -0.64918365  -0.63450064  -0.59339264
  -0.57777363  -0.56801622  -0.55489589  -0.53264979  -0.52219802
  -0.49539633  -0.48003531  -0.46601154  -0.45657827  -0.44890306
  -0.44024704  -0.43105757  -0.41880081  -0.4071919   -0.3907108
  -0.37925382  -0.37520879  -0.36961646  -0.36015646  -0.35724175
  -0.34867783  -0.3381941   -0.32988802  -0.32090161  -0.30610801
  -0.29657681  -0.28792332  -0.26992042  -0.26612157  -0.26123783
  -0.25030089  -0.24507819  -0.2179518   -0.2107413   -0.19549714
  -0.17737525  -0.16042631  -0.10968371  -0.02307604   0.03143814
   0.06892886   0.0956239    0.11262727   0.14223983   0.15280995
   0.19289305   0.20599538   0.23761195   0.24659814   0.25677137
   0.27688002   0.28326321   0.29777275   0.31146704   0.32124644
   0.33327921   0.34762886   0.35949416   0.38098895   0.40009377
   0.40567025   0.41790354   0.43133293   0.43895755   0.44992668
   0.46621405   0.47290249   0.50567232   0.51349072   0.53475782
   0.5610354    0.58805488   0.59901145   0.61102116   0.62020227
   0.63657079   0.66182654   0.66741449   0.69539368   0.72434497
   0.74295581   0.77465913   0.78774587   0.81607382   0.85028912
   0.88633587   0.93309502   0.93949374   1.11588083]
nelec by numeric integration = 145.99999799780508
    CPU time for vxc     37.85 sec, wall time     15.70 sec
E1 = -4102.103469722704  Ecoul = 1895.9949502014  Exc = -124.62906187451588
cycle= 8 E= -835.756649216696  delta_E= -2.1e-06  |g|= 0.000847  |ddm|= 0.00439
    CPU time for cycle= 8     38.32 sec, wall time     15.77 sec
  HOMO = -0.109694784942089  LUMO = -0.0230556672632749
  mo_energy =
[-10.04151379 -10.03418833 -10.02976028 -10.02868721 -10.02358624
 -10.02019291 -10.0193125  -10.01812988 -10.0176995  -10.01527965
 -10.01337145 -10.01100714 -10.01055953 -10.01004741 -10.00992729
 -10.00812422 -10.00737076 -10.00625502 -10.00570364 -10.00250951
 -10.00107426 -10.00060382  -0.86682452  -0.84395951  -0.82035281
  -0.79749045  -0.76183744  -0.75637897  -0.72903814  -0.71312755
  -0.68733498  -0.67483456  -0.64920014  -0.63450009  -0.59341031
  -0.57777789  -0.56802099  -0.55490848  -0.53266776  -0.52219311
  -0.49540089  -0.4800369   -0.46603475  -0.45660353  -0.44889194
  -0.44025925  -0.43106948  -0.41880379  -0.4071914   -0.39073342
  -0.37926207  -0.37521572  -0.36961226  -0.36014889  -0.35724082
  -0.34866934  -0.3382025   -0.32987463  -0.32090106  -0.30610794
  -0.29659698  -0.28790003  -0.26993627  -0.26610531  -0.26122047
  -0.25033173  -0.24507431  -0.21796115  -0.2107542   -0.19549667
  -0.17739424  -0.16045122  -0.10969478  -0.02305567   0.03141998
   0.06891366   0.09561459   0.11261529   0.14221378   0.15284704
   0.19289716   0.20597807   0.23761033   0.24661159   0.25677595
   0.27690061   0.28324721   0.29776193   0.31147315   0.32126474
   0.33328267   0.34763944   0.35944282   0.38096338   0.40006368
   0.40565728   0.41790575   0.43134371   0.43896549   0.44995037
   0.46622364   0.472868     0.50565374   0.51348955   0.53475148
   0.56104763   0.58800774   0.59901686   0.6109888    0.62019577
   0.63652353   0.66180412   0.66742061   0.69541332   0.724376
   0.74296671   0.77465913   0.7877474    0.81605281   0.85026941
   0.88633114   0.93305562   0.93945691   1.1158732 ]
nelec by numeric integration = 145.9999979979552
    CPU time for vxc     38.81 sec, wall time     15.88 sec
E1 = -4102.103772938901  Ecoul = 1895.995305971201  Exc = -124.62911466384186
cycle= 9 E= -835.756649452418  delta_E= -2.36e-07  |g|= 0.000375  |ddm|= 0.00167
    CPU time for cycle= 9     39.44 sec, wall time     15.97 sec
  HOMO = -0.109706472300058  LUMO = -0.0230576234296552
  mo_energy =
[-10.04150347 -10.03418381 -10.02973962 -10.02868196 -10.02360106
 -10.02014964 -10.01932163 -10.01815199 -10.01771424 -10.01530801
 -10.01340552 -10.01101838 -10.01066307 -10.01000207 -10.00997143
 -10.00810672 -10.00738342 -10.00624781 -10.00564216 -10.00250918
 -10.00107739 -10.00066476  -0.86682157  -0.84396788  -0.82036245
  -0.7974862   -0.76183148  -0.75639332  -0.72904447  -0.71313218
  -0.68733756  -0.67484195  -0.64920268  -0.63450576  -0.59341151
  -0.57778798  -0.56802077  -0.55491174  -0.53267158  -0.52219688
  -0.49540766  -0.48004089  -0.46603544  -0.45660177  -0.44890037
  -0.44026346  -0.4310741   -0.41881034  -0.40719833  -0.39073302
  -0.37926004  -0.37522025  -0.36962229  -0.36015206  -0.3572473
  -0.34867012  -0.33820864  -0.32987691  -0.3209052   -0.30610864
  -0.29659449  -0.28791162  -0.26993736  -0.26611166  -0.26122371
  -0.25032738  -0.24507456  -0.21796279  -0.21075853  -0.19549809
  -0.17740151  -0.16045967  -0.10970647  -0.02305762   0.03141472
   0.06890423   0.09560914   0.11261057   0.14221673   0.15283556
   0.1928978    0.20598112   0.23760894   0.24661403   0.25678022
   0.27690146   0.28324594   0.29775679   0.31147475   0.32125341
   0.33328497   0.34762531   0.35945064   0.380965     0.40006698
   0.4056491    0.41790171   0.43132998   0.43895617   0.44994373
   0.46621967   0.47286321   0.50564788   0.5134838    0.53474641
   0.56102865   0.58800845   0.59901036   0.61098517   0.62018667
   0.63653208   0.66180043   0.66740531   0.69539823   0.72436008
   0.74296734   0.77465092   0.78773731   0.81605127   0.85026704
   0.88632006   0.93306195   0.93946339   1.11588647]
nelec by numeric integration = 145.99999799793207
    CPU time for vxc     37.84 sec, wall time     15.76 sec
E1 = -4102.104087248711  Ecoul = 1895.9956365844473  Exc = -124.6291310150093
cycle= 10 E= -835.756649500149  delta_E= -4.77e-08  |g|= 6.83e-05  |ddm|= 0.000578
    CPU time for cycle= 10     38.46 sec, wall time     15.85 sec
  HOMO = -0.109710481350262  LUMO = -0.0230611019936163
  mo_energy =
[-10.04151328 -10.0341819  -10.02973894 -10.0287049  -10.02359693
 -10.02015056 -10.01931845 -10.01814961 -10.01771085 -10.0153056
 -10.01339841 -10.01102079 -10.01064521 -10.00999896 -10.00996889
 -10.00810152 -10.00739259 -10.00625407 -10.00566756 -10.00251836
 -10.00109437 -10.00066925  -0.86682503  -0.84397046  -0.82036159
  -0.79748931  -0.76183288  -0.75639544  -0.72904528  -0.71313279
  -0.6873401   -0.67484346  -0.64920503  -0.63450856  -0.59341236
  -0.5777889   -0.56802411  -0.55491139  -0.53267184  -0.52220005
  -0.49540734  -0.48004218  -0.46603577  -0.4566017   -0.44890164
  -0.44026396  -0.43107386  -0.41881141  -0.40719877  -0.39073446
  -0.37926405  -0.37522198  -0.36962331  -0.3601549   -0.35724898
  -0.34867331  -0.33821148  -0.32988141  -0.32090648  -0.30611144
  -0.29659649  -0.28791469  -0.26993977  -0.26611403  -0.26122801
  -0.25032934  -0.24507813  -0.21796458  -0.2107586   -0.19550163
  -0.17740545  -0.16046027  -0.10971048  -0.0230611    0.03141437
   0.06889981   0.09560867   0.11260976   0.14221561   0.15283309
   0.19289456   0.20597822   0.23760652   0.24661081   0.25677504
   0.27689447   0.28324329   0.29775494   0.31146969   0.32125044
   0.33327964   0.34762345   0.35944976   0.38096523   0.4000656
   0.40564818   0.41790006   0.43132684   0.43895351   0.44994028
   0.46621669   0.47286411   0.50564669   0.51348166   0.53474545
   0.56102712   0.58800771   0.59900745   0.61098639   0.62018729
   0.63653304   0.66179902   0.66740655   0.69539952   0.72436042
   0.74296367   0.77465039   0.78773492   0.81604909   0.85026558
   0.88632225   0.93305837   0.93946139   1.11588036]
nelec by numeric integration = 145.99999799793403
    CPU time for vxc     37.92 sec, wall time     15.67 sec
E1 = -4102.104281681274  Ecoul = 1895.995833543427  Exc = -124.62913354280892
cycle= 11 E= -835.756649501532  delta_E= -1.38e-09  |g|= 4.48e-05  |ddm|= 0.000159
    CPU time for cycle= 11     38.41 sec, wall time     15.74 sec
  HOMO = -0.109709131811312  LUMO = -0.0230586649383883
  mo_energy =
[-10.04150715 -10.0341821  -10.02973856 -10.02869443 -10.02359759
 -10.020153   -10.01931922 -10.01814715 -10.01771007 -10.0153083
 -10.01340116 -10.01101654 -10.01065041 -10.0100011  -10.00996563
 -10.00810317 -10.00738402 -10.0062499  -10.00566076 -10.00251183
 -10.00108629 -10.00066469  -0.8668227   -0.8439685   -0.82036075
  -0.79748752  -0.76183143  -0.75639524  -0.72904398  -0.71313166
  -0.68733836  -0.67484162  -0.64920327  -0.63450717  -0.59341149
  -0.57778778  -0.56802238  -0.55491084  -0.53267087  -0.52219855
  -0.49540633  -0.48004135  -0.46603493  -0.45660098  -0.44890087
  -0.44026279  -0.43107381  -0.41881012  -0.40719791  -0.39073319
  -0.3792623   -0.37522071  -0.369622    -0.36015373  -0.35724747
  -0.34867171  -0.33820957  -0.32988015  -0.32090539  -0.30611019
  -0.29659504  -0.28791327  -0.26993783  -0.2661131   -0.26122682
  -0.25032792  -0.24507721  -0.21796302  -0.21075764  -0.19550052
  -0.17740298  -0.16045886  -0.10970913  -0.02305866   0.03141536
   0.06890293   0.09560971   0.11261128   0.14221712   0.15283336
   0.19289538   0.20597989   0.23760802   0.24661221   0.25677665
   0.27689608   0.28324516   0.29775664   0.31147097   0.32125195
   0.33328107   0.34762526   0.35945048   0.38096543   0.40006632
   0.40564995   0.41790122   0.43132897   0.43895473   0.44994138
   0.46621776   0.47286572   0.50564799   0.5134834    0.53474682
   0.56102829   0.5880089    0.59900892   0.61098689   0.62018877
   0.63653376   0.66180034   0.66740687   0.69539956   0.72436067
   0.74296467   0.77465183   0.7877372    0.8160511    0.8502671
   0.88632258   0.93306073   0.93946347   1.11588249]
nelec by numeric integration = 145.99999799793184
    CPU time for vxc     38.82 sec, wall time     15.97 sec
E1 = -4102.104091059186  Ecoul = 1895.9956392069942  Exc = -124.62912982909393
cycle= 12 E= -835.756649502162  delta_E= -6.3e-10  |g|= 1.51e-05  |ddm|= 7.61e-05
    CPU time for cycle= 12     39.29 sec, wall time     16.04 sec
  HOMO = -0.109709051557983  LUMO = -0.023058202514105
  mo_energy =
[-10.04150645 -10.03418294 -10.02974023 -10.02869566 -10.02359695
 -10.02015321 -10.01931806 -10.01814844 -10.01771073 -10.01530576
 -10.01339986 -10.01101724 -10.01064788 -10.01000088 -10.00996874
 -10.00810251 -10.00738657 -10.00625116 -10.0056566  -10.00251078
 -10.0010859  -10.00066447  -0.86682261  -0.84396915  -0.82036058
  -0.79748769  -0.76183169  -0.75639417  -0.72904401  -0.71313197
  -0.68733817  -0.67484157  -0.64920377  -0.63450664  -0.59341117
  -0.57778813  -0.56802233  -0.5549108   -0.53267101  -0.52219822
  -0.49540639  -0.48004132  -0.46603486  -0.45660094  -0.44890039
  -0.4402632   -0.43107351  -0.41881043  -0.4071978   -0.3907333
  -0.3792621   -0.37522088  -0.36962193  -0.36015334  -0.35724784
  -0.34867212  -0.33820963  -0.3298799   -0.32090521  -0.30611003
  -0.29659513  -0.28791317  -0.26993818  -0.26611256  -0.26122636
  -0.25032814  -0.24507678  -0.21796314  -0.21075777  -0.19550024
  -0.17740286  -0.16045884  -0.10970905  -0.0230582    0.03141546
   0.06890303   0.09560964   0.11261095   0.14221676   0.15283458
   0.19289575   0.20597991   0.23760778   0.24661169   0.2567769
   0.27689665   0.28324494   0.29775643   0.31147167   0.32125217
   0.33328165   0.34762511   0.35945043   0.38096568   0.40006661
   0.40564975   0.41790123   0.43132858   0.43895501   0.44994133
   0.46621854   0.47286535   0.50564725   0.51348298   0.53474653
   0.56102848   0.58800884   0.5990093    0.61098703   0.6201884
   0.63653335   0.66180004   0.66740697   0.69540017   0.72436136
   0.74296616   0.7746517    0.78773638   0.81605121   0.85026635
   0.88632295   0.93306093   0.93946289   1.11588242]
nelec by numeric integration = 145.99999799793207
    CPU time for vxc     38.09 sec, wall time     15.74 sec
E1 = -4102.104121207145  Ecoul = 1895.9956696488725  Exc = -124.62913012308083
cycle= 13 E= -835.756649502229  delta_E= -6.68e-11  |g|= 9.99e-06  |ddm|= 4.41e-05
    CPU time for cycle= 13     38.56 sec, wall time     15.81 sec
  HOMO = -0.109709475849595  LUMO = -0.0230584604215507
  mo_energy =
[-10.04150861 -10.03418202 -10.02973755 -10.02869366 -10.0235984
 -10.02015182 -10.01931981 -10.0181481  -10.01771049 -10.01530837
 -10.01340156 -10.01101787 -10.01065259 -10.01000081 -10.00996325
 -10.00810356 -10.00738511 -10.00624986 -10.00566326 -10.00251253
 -10.0010871  -10.00066322  -0.86682312  -0.84396816  -0.82036123
  -0.79748754  -0.76183148  -0.75639545  -0.72904433  -0.71313194
  -0.68733868  -0.67484182  -0.64920285  -0.63450761  -0.59341184
  -0.57778761  -0.56802269  -0.55491109  -0.53267096  -0.52219884
  -0.49540672  -0.48004134  -0.46603519  -0.45660127  -0.4489012
  -0.44026271  -0.43107404  -0.41881006  -0.40719822  -0.39073331
  -0.37926246  -0.37522068  -0.36962228  -0.36015386  -0.35724739
  -0.34867179  -0.33820952  -0.32987998  -0.32090568  -0.3061103
  -0.29659516  -0.28791312  -0.269938    -0.2661133   -0.26122683
  -0.25032803  -0.24507719  -0.21796329  -0.21075786  -0.1955004
  -0.17740322  -0.16045912  -0.10970948  -0.02305846   0.03141496
   0.06890294   0.0956095    0.11261086   0.14221722   0.15283293
   0.19289543   0.20597966   0.23760779   0.246612     0.25677651
   0.27689626   0.28324503   0.29775647   0.31147099   0.32125197
   0.33328108   0.34762551   0.35945032   0.38096512   0.4000661
   0.4056497    0.417901     0.43132911   0.43895481   0.44994139
   0.46621737   0.47286516   0.50564837   0.51348326   0.53474666
   0.5610284    0.58800887   0.59900888   0.61098639   0.62018831
   0.6365337    0.66180039   0.66740656   0.69539893   0.72436017
   0.74296401   0.77465136   0.78773769   0.8160506    0.85026753
   0.88632201   0.9330602    0.93946336   1.11588279]
nelec by numeric integration = 145.9999979979369
    CPU time for vxc     38.14 sec, wall time     15.85 sec
E1 = -4102.104107296267  Ecoul = 1895.995656815855  Exc = -124.62913120064772
Extra cycle  E= -835.756649501936  delta_E= 2.93e-10  |g|= 2.9e-05  |ddm|= 6.6e-05
    CPU time for scf_cycle    586.29 sec, wall time    239.44 sec
    CPU time for SCF    586.29 sec, wall time    239.44 sec
converged SCF energy = -835.756649501936
nelec by numeric integration = 145.9999979979369
    CPU time for vxc     38.52 sec, wall time     15.85 sec
 ** Mulliken pop  **
pop of  0 C 1s            1.99105
pop of  0 C 2s            1.13997
pop of  0 C 2px           0.96730
pop of  0 C 2py           0.91786
pop of  0 C 2pz           0.94654
pop of  1 C 1s            1.99036
pop of  1 C 2s            1.06217
pop of  1 C 2px           1.02802
pop of  1 C 2py           0.98394
pop of  1 C 2pz           0.98600
pop of  2 C 1s            1.99104
pop of  2 C 2s            1.12943
pop of  2 C 2px           1.00458
pop of  2 C 2py           0.96172
pop of  2 C 2pz           0.99341
pop of  3 C 1s            1.99082
pop of  3 C 2s            1.16351
pop of  3 C 2px           1.01606
pop of  3 C 2py           0.95177
pop of  3 C 2pz           0.98485
pop of  4 C 1s            1.99126
pop of  4 C 2s            1.21462
pop of  4 C 2px           0.96587
pop of  4 C 2py           0.91817
pop of  4 C 2pz           0.96387
pop of  5 C 1s            1.99074
pop of  5 C 2s            1.11836
pop of  5 C 2px           0.97768
pop of  5 C 2py           0.96362
pop of  5 C 2pz           1.00686
pop of  6 C 1s            1.99116
pop of  6 C 2s            1.21317
pop of  6 C 2px           1.01073
pop of  6 C 2py           0.93576
pop of  6 C 2pz           0.92548
pop of  7 C 1s            1.99089
pop of  7 C 2s            1.09060
pop of  7 C 2px           1.01604
pop of  7 C 2py           1.04601
pop of  7 C 2pz           0.97561
pop of  8 C 1s            1.99105
pop of  8 C 2s            1.14298
pop of  8 C 2px           0.97639
pop of  8 C 2py           0.95836
pop of  8 C 2pz           0.92725
pop of  9 C 1s            1.99149
pop of  9 C 2s            1.06172
pop of  9 C 2px           1.01575
pop of  9 C 2py           0.99947
pop of  9 C 2pz           0.96215
pop of  10 C 1s           1.99127
pop of  10 C 2s           1.18355
pop of  10 C 2px          0.97918
pop of  10 C 2py          0.92926
pop of  10 C 2pz          0.93481
pop of  11 C 1s           1.99187
pop of  11 C 2s           1.14629
pop of  11 C 2px          0.98638
pop of  11 C 2py          0.99373
pop of  11 C 2pz          0.98160
pop of  12 C 1s           1.99008
pop of  12 C 2s           1.04491
pop of  12 C 2px          1.03824
pop of  12 C 2py          0.98936
pop of  12 C 2pz          1.00374
pop of  13 C 1s           1.99136
pop of  13 C 2s           1.10030
pop of  13 C 2px          0.98353
pop of  13 C 2py          0.92099
pop of  13 C 2pz          0.96257
pop of  14 C 1s           1.99073
pop of  14 C 2s           1.11318
pop of  14 C 2px          0.98277
pop of  14 C 2py          0.96487
pop of  14 C 2pz          0.99803
pop of  15 C 1s           1.99120
pop of  15 C 2s           1.19147
pop of  15 C 2px          1.02175
pop of  15 C 2py          0.90956
pop of  15 C 2pz          0.96835
pop of  16 C 1s           1.99072
pop of  16 C 2s           1.13932
pop of  16 C 2px          1.00482
pop of  16 C 2py          0.93949
pop of  16 C 2pz          0.94079
pop of  17 C 1s           1.99127
pop of  17 C 2s           1.20605
pop of  17 C 2px          0.92706
pop of  17 C 2py          0.93137
pop of  17 C 2pz          0.94472
pop of  18 C 1s           1.99112
pop of  18 C 2s           1.14481
pop of  18 C 2px          0.97605
pop of  18 C 2py          0.94869
pop of  18 C 2pz          0.98194
pop of  19 C 1s           1.99134
pop of  19 C 2s           1.20359
pop of  19 C 2px          0.98164
pop of  19 C 2py          0.93323
pop of  19 C 2pz          0.93462
pop of  20 C 1s           1.99044
pop of  20 C 2s           1.06831
pop of  20 C 2px          1.03987
pop of  20 C 2py          1.05701
pop of  20 C 2pz          1.00215
pop of  21 C 1s           1.99070
pop of  21 C 2s           1.13868
pop of  21 C 2px          1.00130
pop of  21 C 2py          0.98569
pop of  21 C 2pz          0.95324
pop of  22 H 1s           0.91129
pop of  23 H 1s           0.89096
pop of  24 H 1s           0.93430
pop of  25 H 1s           0.92237
pop of  26 H 1s           0.91041
pop of  27 H 1s           0.89610
pop of  28 H 1s           0.97628
pop of  29 H 1s           0.91788
pop of  30 H 1s           0.93058
pop of  31 H 1s           0.89476
pop of  32 H 1s           0.92833
pop of  33 H 1s           0.95540
pop of  34 H 1s           0.87642
pop of  35 H 1s           0.91644
 ** Mulliken atomic charges  **
charge of    0C =      0.03728
charge of    1C =     -0.05049
charge of    2C =     -0.08018
charge of    3C =     -0.10700
charge of    4C =     -0.05380
charge of    5C =     -0.05727
charge of    6C =     -0.07630
charge of    7C =     -0.11914
charge of    8C =      0.00397
charge of    9C =     -0.03059
charge of   10C =     -0.01808
charge of   11C =     -0.09987
charge of   12C =     -0.06633
charge of   13C =      0.04125
charge of   14C =     -0.04959
charge of   15C =     -0.08233
charge of   16C =     -0.01513
charge of   17C =     -0.00047
charge of   18C =     -0.04262
charge of   19C =     -0.04443
charge of   20C =     -0.15778
charge of   21C =     -0.06960
charge of   22H =      0.08871
charge of   23H =      0.10904
charge of   24H =      0.06570
charge of   25H =      0.07763
charge of   26H =      0.08959
charge of   27H =      0.10390
charge of   28H =      0.02372
charge of   29H =      0.08212
charge of   30H =      0.06942
charge of   31H =      0.10524
charge of   32H =      0.07167
charge of   33H =      0.04460
charge of   34H =      0.12358
charge of   35H =      0.08356
Dipole moment(X, Y, Z, Debye):  0.28779, -0.10216, -0.49703
nelec by numeric integration = 145.9999979979369
    CPU time for vxc     37.85 sec, wall time     15.77 sec
E1 = -4102.104107296267  Ecoul = 1895.9956568158545  Exc = -124.6291312006477
nelec by numeric integration = 145.9999979979369
    CPU time for vxc     37.50 sec, wall time     15.59 sec
E1 = -4102.104107296267  Ecoul = 1895.9956568158543  Exc = -124.6291312006477
