System: uname_result(system='Linux', node='cosmopc18', release='5.15.0-97-generic', version='#107-Ubuntu SMP Wed Feb 7 13:26:48 UTC 2024', machine='x86_64')  Threads 4
Python 3.11.8 (main, Feb 26 2024, 21:39:34) [GCC 11.2.0]
numpy 1.26.4  scipy 1.11.4
Date: Tue Apr  9 10:15:01 2024
PySCF version 2.3.0
PySCF path  /home/saade/miniconda3/envs/tutorial/lib/python3.11/site-packages/pyscf

[ENV] PYSCFAD_BACKEND torch
[CONFIG] conf_file None
[INPUT] verbose = 5
[INPUT] max_memory = 4000 
[INPUT] num. atoms = 36
[INPUT] num. electrons = 146
[INPUT] charge = 0
[INPUT] spin (= nelec alpha-beta = 2S) = 0
[INPUT] symmetry False subgroup None
[INPUT] Mole.unit = angstrom
[INPUT] Symbol           X                Y                Z      unit          X                Y                Z       unit  Magmom
[INPUT]  1 C     -0.048329000000   3.824890000000   0.819302000000 AA   -0.091328573874   7.227994556588   1.548256393308 Bohr   0.0
[INPUT]  2 C     -0.042635000000   3.712918000000  -0.629288000000 AA   -0.080568473321   7.016398142968  -1.189181973475 Bohr   0.0
[INPUT]  3 C     -0.019631000000   4.899931000000   1.521713000000 AA   -0.037097213551   9.259527619266   2.875620810190 Bohr   0.0
[INPUT]  4 C     -0.128270000000   2.389126000000   1.524313000000 AA   -0.242395169998   4.514793817078   2.880534098114 Bohr   0.0
[INPUT]  5 C      0.033365000000   5.021665000000  -1.346244000000 AA    0.063050712146   9.489571539314  -2.544032456839 Bohr   0.0
[INPUT]  6 C     -0.076805000000   2.447142000000  -1.344175000000 AA   -0.145140414997   4.624428167920  -2.540122613487 Bohr   0.0
[INPUT]  7 C      0.123816000000   6.302825000000  -0.511948000000 AA    0.233978329839  11.910613061062  -0.967441510019 Bohr   0.0
[INPUT]  8 C      0.077949000000   6.158466000000   0.877131000000 AA    0.147302261684  11.637814087446   1.657537365366 Bohr   0.0
[INPUT]  9 C      0.098365000000   1.195448000000   0.720190000000 AA    0.185882910243   2.259069316159   1.360961857651 Bohr   0.0
[INPUT] 10 C      0.104869000000   1.257750000000  -0.810813000000 AA    0.198173688957   2.376803033172  -1.532214508237 Bohr   0.0
[INPUT] 11 C     -0.033134000000   0.014276000000   1.456855000000 AA   -0.062614185411   0.026977730154   2.753056953203 Bohr   0.0
[INPUT] 12 C     -0.043029000000   0.119792000000  -1.424567000000 AA   -0.081313025414   0.226374071914  -2.692041476093 Bohr   0.0
[INPUT] 13 C      0.053048000000  -1.381734000000   0.558101000000 AA    0.100246191456  -2.611098837000   1.054658039846 Bohr   0.0
[INPUT] 14 C     -0.004832000000  -1.218788000000  -0.770711000000 AA   -0.009131156634  -2.303175523906  -1.456432711190 Bohr   0.0
[INPUT] 15 C      0.049944000000  -2.406363000000   1.351772000000 AA    0.094380481565  -4.547367026287   2.554478862856 Bohr   0.0
[INPUT] 16 C     -0.066175000000  -2.511877000000  -1.612247000000 AA   -0.125052626293  -4.746759588594  -3.046705275152 Bohr   0.0
[INPUT] 17 C      0.019842000000  -3.535926000000   0.751614000000 AA    0.037495945764  -6.681931736729   1.420344611389 Bohr   0.0
[INPUT] 18 C      0.003877000000  -3.615649000000  -0.702222000000 AA    0.007326468185  -6.832586372558  -1.327007258644 Bohr   0.0
[INPUT] 19 C      0.078239000000  -4.854683000000   1.408693000000 AA    0.147850282260  -9.174021291582   2.662043963592 Bohr   0.0
[INPUT] 20 C     -0.135795000000  -4.960217000000  -1.321268000000 AA   -0.256615359085  -9.373451648412  -2.496834657152 Bohr   0.0
[INPUT] 21 C     -0.086162000000  -6.015940000000   0.618311000000 AA   -0.162822582345 -11.368478981816   1.168438449806 Bohr   0.0
[INPUT] 22 C      0.140901000000  -5.973509000000  -0.554143000000 AA    0.266264300677 -11.288296012625  -1.047178503845 Bohr   0.0
[INPUT] 23 H      0.021430000000   4.891478000000   2.265410000000 AA    0.040496830849   9.243553764335   4.281004459851 Bohr   0.0
[INPUT] 24 H     -0.053541000000   2.311461000000   2.259427000000 AA   -0.101177826435   4.368028237613   4.269698228448 Bohr   0.0
[INPUT] 25 H      0.051699000000   4.866244000000  -2.496155000000 AA    0.097696950914   9.195868415308  -4.717049314464 Bohr   0.0
[INPUT] 26 H     -0.037721000000   2.486547000000  -2.392164000000 AA   -0.071282359145   4.698892825859  -4.520534805044 Bohr   0.0
[INPUT] 27 H      0.002810000000   7.160866000000  -1.260304000000 AA    0.005310130410  13.532075554710  -2.381629393694 Bohr   0.0
[INPUT] 28 H      0.088795000000   6.847876000000   0.982522000000 AA    0.167798231231  12.940610174982   1.856697491360 Bohr   0.0
[INPUT] 29 H      0.280529000000   0.053279000000   2.612516000000 AA    0.530122979998   0.100682718191   4.936939736044 Bohr   0.0
[INPUT] 30 H      0.126134000000  -0.050227000000  -2.408831000000 AA    0.238358714996  -0.094915274059  -4.552030870362 Bohr   0.0
[INPUT] 31 H      0.076776000000  -2.498314000000   2.298900000000 AA    0.145085612940  -4.721129233167   4.344291387763 Bohr   0.0
[INPUT] 32 H     -0.076815000000  -2.536590000000  -2.372292000000 AA   -0.145159312258  -4.793460390310  -4.482982167497 Bohr   0.0
[INPUT] 33 H      0.141090000000  -4.869969000000   2.372527000000 AA    0.266621458915  -9.202907645122   4.483426253136 Bohr   0.0
[INPUT] 34 H      0.056988000000  -4.865340000000  -2.448091000000 AA    0.107691712387  -9.194160102891  -4.626221518013 Bohr   0.0
[INPUT] 35 H      0.077865000000  -6.982287000000   1.388398000000 AA    0.147143524689 -13.194610153111   2.623691971894 Bohr   0.0
[INPUT] 36 H     -0.006697000000  -7.041542000000  -1.182205000000 AA   -0.012655495856 -13.306585874622  -2.234043673091 Bohr   0.0
[INPUT] ---------------- BASIS SET ---------------- 
[INPUT] l, kappa, [nprim/nctr], expnt,             c_1 c_2 ...
[INPUT] H
[INPUT] 0    0    [3    /1   ]  3.42525091        0.15432897
                                0.62391373        0.53532814
                                0.1688554         0.44463454
[INPUT] C
[INPUT] 0    0    [3    /1   ]  71.616837         0.15432897
                                13.045096         0.53532814
                                3.5305122         0.44463454
[INPUT] 0    0    [3    /1   ]  2.9412494         -0.09996723
                                0.6834831         0.39951283
                                0.2222899         0.70011547
[INPUT] 1    0    [3    /1   ]  2.9412494         0.15591627
                                0.6834831         0.60768372
                                0.2222899         0.39195739

nuclear repulsion = 1500.62346334308
number of shells = 80
number of NR pGTOs = 372
number of NR cGTOs = 124
basis = sto3g
ecp = {}
CPU time:      4828.49
atom C rad-grids = 99, ang-grids = [ 50  50  50  50  50  50  50  50  50  50  50  50  50  50  50  50  50  50
  50  50  50  50  50  50  50  50  50  50  50  50  50  86  86  86  86  86
  86  86  86  86  86  86  86 434 434 434 434 434 434 434 434 434 590 590
 590 590 590 590 590 590 590 590 590 590 590 590 590 590 590 590 590 590
 590 590 590 590 590 590 590 434 434 434 434 434 434 434 434 434 434 434
 434 434 434 434 434 434 434 434 434]
atom H rad-grids = 99, ang-grids = [ 50  50  50  50  50  50  50  50  50  50  50  50  50  50  50  50  50  50
  50  50  50  50  50  50  50  50  50  50  86  86  86  86  86  86  86 434
 434 434 434 434 434 434 434 590 590 590 590 590 590 590 590 590 590 590
 590 590 590 590 590 590 590 590 590 590 590 590 590 590 590 434 434 434
 434 434 434 434 434 434 434 434 434 434 434 434 434 434 434 434 434 434
 434 434 434 434 434 434 434 434 434]
tot_boxes 5270, boxes in each direction [ 8 29 15]
Padding 0 grids
tot grids = 1157832


******** <class 'pyscf.dft.rks.RKS'> ********
method = RKS
initial guess = minao
damping factor = 0
level_shift factor = 0
DIIS = <class 'pyscf.scf.diis.CDIIS'>
diis_start_cycle = 1
diis_space = 8
SCF conv_tol = 1e-10
SCF conv_tol_grad = None
SCF max_cycles = 50
direct_scf = True
direct_scf_tol = 1e-13
chkfile to save SCF result = /home/saade/mlelec/tutorials/tmpqyfs3ajv
max_memory 4000 MB (current use 635 MB)
XC library pyscf.dft.libxc version 6.1.0
    S. Lehtola, C. Steigemann, M. J.T. Oliveira, and M. A.L. Marques.,  SoftwareX 7, 1–5 (2018)
XC functionals = b3lypg
    P. J. Stephens, F. J. Devlin, C. F. Chabalowski, and M. J. Frisch.,  J. Phys. Chem. 98, 11623 (1994)
radial grids: 
    Treutler-Ahlrichs [JCP 102, 346 (1995); DOI:10.1063/1.469408] (M4) radial grids
    
becke partition: Becke, JCP 88, 2547 (1988); DOI:10.1063/1.454033
pruning grids: <function nwchem_prune at 0x7f9db5616ca0>
grids dens level: 3
symmetrized grids: False
atomic radii adjust function: <function treutler_atomic_radii_adjust at 0x7f9db5617380>
User specified grid scheme (99, 590)
small_rho_cutoff = 1e-07
Set gradient conv threshold to 1e-05
Initial guess from minao.
nelec by numeric integration = 145.26340818564893
    CPU time for vxc     36.95 sec, wall time     15.46 sec
E1 = -4099.194891354006  Ecoul = 1883.3485958964975  Exc = -126.41708579058024
init E= -841.639917905012
cond(S) = 30.512094266085843
    CPU time for initialize scf     46.78 sec, wall time     17.85 sec
  HOMO = -0.202804830141599  LUMO = -0.172410355330028
  mo_energy =
[-10.16849807 -10.16679742 -10.14773062 -10.14265305 -10.13977085
 -10.12981078 -10.12550415 -10.11628505 -10.11596193 -10.11297331
 -10.11037322 -10.1102716  -10.10015028 -10.09834475 -10.09508258
 -10.09468878 -10.0931088  -10.08815378 -10.08600574 -10.07976714
 -10.07116033 -10.06585817  -1.10293626  -1.0731326   -1.04901233
  -1.0251014   -0.96397297  -0.94585292  -0.93177864  -0.90329134
  -0.88205321  -0.85422597  -0.80458267  -0.79857701  -0.76141371
  -0.72996825  -0.72059433  -0.70271129  -0.6828388   -0.64897994
  -0.61997809  -0.60456274  -0.59581434  -0.58724745  -0.55572027
  -0.55447149  -0.52475904  -0.52041383  -0.51208867  -0.48845531
  -0.47566582  -0.47542218  -0.46004571  -0.45959715  -0.45624582
  -0.44889072  -0.44341363  -0.42621397  -0.41652861  -0.40896973
  -0.38566517  -0.37434159  -0.37131513  -0.3625444   -0.34802961
  -0.34348195  -0.33262022  -0.32137682  -0.31151158  -0.29111942
  -0.28682552  -0.25150907  -0.20280483  -0.17241036  -0.11983936
  -0.06940524  -0.04816044  -0.03354357  -0.02074577  -0.01429471
   0.04846458   0.08596334   0.11405455   0.11671907   0.13719122
   0.15575577   0.16595907   0.16993171   0.20912814   0.21886487
   0.23446673   0.24103713   0.25236934   0.27149847   0.28227704
   0.29052741   0.30001947   0.31555199   0.32445891   0.34731115
   0.36664653   0.37418782   0.39051316   0.40241016   0.41521708
   0.44266805   0.45737298   0.46282196   0.47400358   0.5082258
   0.5121733    0.52583814   0.57717086   0.63096911   0.64014125
   0.66101852   0.70532605   0.72539173   0.75363      0.82263029
   0.87357843   0.88281373   0.90538915   1.06766981]
nelec by numeric integration = 146.00000181615923
    CPU time for vxc     38.16 sec, wall time     15.75 sec
E1 = -4112.433705107202  Ecoul = 1901.7380930477627  Exc = -124.98993413218047
cycle= 1 E= -835.062082848542  delta_E= 6.58  |g|= 0.309  |ddm|=  9.3
    CPU time for cycle= 1     38.57 sec, wall time     15.81 sec
  HOMO = -0.0807838023678544  LUMO = -0.0208575948920779
  mo_energy =
[-10.06983929 -10.06391578 -10.04866273 -10.03915464 -10.03704625
 -10.03526672 -10.02173949 -10.01924872 -10.01715404 -10.01593802
 -10.00563312  -9.99647905  -9.99072419  -9.98961168  -9.98275803
  -9.97808884  -9.97462928  -9.97136644  -9.96875964  -9.96868539
  -9.93442551  -9.9232525   -0.84874808  -0.82853943  -0.81014098
  -0.79315649  -0.75460592  -0.7433089   -0.73991208  -0.7141227
  -0.70525854  -0.67778406  -0.64781328  -0.62513234  -0.61731117
  -0.59763557  -0.58034583  -0.57262813  -0.54416903  -0.531309
  -0.49772901  -0.48413541  -0.47274076  -0.4718473   -0.45034302
  -0.44584818  -0.4203918   -0.41298385  -0.40130749  -0.39493531
  -0.38049118  -0.37096191  -0.36668734  -0.35909146  -0.35647273
  -0.34799824  -0.33838271  -0.32400562  -0.31314205  -0.31152397
  -0.29799106  -0.29129421  -0.28378355  -0.26759037  -0.25543546
  -0.23497857  -0.22870196  -0.22227616  -0.2182218   -0.19271742
  -0.18962786  -0.13991519  -0.0807838   -0.02085759   0.02883836
   0.0686236    0.07548609   0.113927     0.12566121   0.1375401
   0.20497118   0.22719012   0.25497426   0.25970741   0.27810204
   0.29123867   0.30041845   0.31850528   0.32324397   0.34552331
   0.36086917   0.36944818   0.38241397   0.40198428   0.42173735
   0.43208068   0.44940532   0.45540412   0.46699985   0.48826451
   0.5129478    0.52308579   0.53425195   0.55883056   0.57315101
   0.58671183   0.60018459   0.60505952   0.61605726   0.64291472
   0.65799255   0.67339108   0.72616239   0.7948422    0.80660202
   0.82413679   0.87013631   0.88840041   0.91328321   0.99085261
   1.03568337   1.04620679   1.08686142   1.22576823]
nelec by numeric integration = 146.00000177607072
    CPU time for vxc     37.99 sec, wall time     15.70 sec
E1 = -4109.287258584982  Ecoul = 1898.5015810927196  Exc = -124.86896318090967
cycle= 2 E= -835.031177330095  delta_E= 0.0309  |g|= 0.426  |ddm|= 1.15
    CPU time for cycle= 2     38.44 sec, wall time     15.78 sec
  HOMO = -0.0987506456505946  LUMO = -0.0377905224738606
  mo_energy =
[-10.050657   -10.04899475 -10.04182968 -10.03494362 -10.02785423
 -10.02600789 -10.02543359 -10.02272247 -10.01688484 -10.01680557
 -10.01524303 -10.01399057 -10.01364722 -10.01010242 -10.00716775
 -10.0030048  -10.00141914 -10.00133103  -9.99794188  -9.99090118
  -9.98437204  -9.97233304  -0.85651208  -0.83864937  -0.82466871
  -0.80687948  -0.77055408  -0.7525924   -0.74765643  -0.72746783
  -0.70592889  -0.68608585  -0.65282049  -0.64743998  -0.62226069
  -0.60112627  -0.58926852  -0.5701446   -0.55695456  -0.52766637
  -0.51074995  -0.49485728  -0.48729553  -0.48193718  -0.45596524
  -0.44981485  -0.42392951  -0.42018543  -0.41441069  -0.39394178
  -0.38832796  -0.37654778  -0.372697    -0.36612766  -0.36434795
  -0.35282742  -0.34597282  -0.32549374  -0.32392342  -0.30934866
  -0.29653685  -0.29295216  -0.28971211  -0.27647694  -0.26581161
  -0.24855327  -0.23355936  -0.23191816  -0.21910068  -0.1967939
  -0.18756387  -0.15147755  -0.09875065  -0.03779052   0.01969595
   0.07103928   0.081668     0.10563269   0.11878813   0.12447026
   0.19095741   0.21747894   0.24458487   0.25719757   0.27935406
   0.29130574   0.31178383   0.3172201    0.32559649   0.35069803
   0.35846593   0.36222565   0.38868879   0.40971246   0.41711937
   0.4404747    0.4439483    0.45984725   0.46727647   0.48626045
   0.50881671   0.51785988   0.53186883   0.54860735   0.55535969
   0.58324806   0.59633317   0.60106557   0.61078089   0.63916692
   0.64817576   0.66933631   0.71947046   0.78359831   0.78613294
   0.80552286   0.85356439   0.87771261   0.90214126   0.96558038
   1.00334003   1.01669718   1.03003281   1.20393893]
nelec by numeric integration = 146.00000180102825
    CPU time for vxc     38.16 sec, wall time     15.64 sec
E1 = -4109.807125849651  Ecoul = 1898.9874122268368  Exc = -124.88665772311758
cycle= 3 E= -835.082908002855  delta_E= -0.0517  |g|= 0.208  |ddm|= 0.98
    CPU time for cycle= 3     38.60 sec, wall time     15.71 sec
  HOMO = -0.100652135175807  LUMO = -0.0375449196323177
  mo_energy =
[-10.04961708 -10.04337878 -10.04122635 -10.03150443 -10.03047416
 -10.03005399 -10.02848238 -10.02811699 -10.02603663 -10.02416293
 -10.0240668  -10.02368512 -10.02311261 -10.02001962 -10.01925313
 -10.01638448 -10.01074479 -10.00844057 -10.00737307 -10.00409925
 -10.00192497  -9.98728488  -0.8635719   -0.84110893  -0.8295929
  -0.8150708   -0.76883052  -0.7576664   -0.7481918   -0.7278033
  -0.7139295   -0.69212045  -0.65874743  -0.64285539  -0.62897
  -0.60333701  -0.59369529  -0.57626776  -0.5595679   -0.5337372
  -0.51015298  -0.49910726  -0.49160986  -0.48585927  -0.45907719
  -0.45576737  -0.42881392  -0.42721291  -0.41728854  -0.39876365
  -0.39237471  -0.37830944  -0.37382901  -0.37238265  -0.36665063
  -0.35557963  -0.35146763  -0.32960223  -0.3285814   -0.31507451
  -0.30250973  -0.3011536   -0.29599873  -0.28036202  -0.26598365
  -0.24778188  -0.23811333  -0.23447111  -0.22338356  -0.1984285
  -0.19688159  -0.15777029  -0.10065214  -0.03754492   0.0126341
   0.06202638   0.08015827   0.10084845   0.11144824   0.1264836
   0.18486432   0.21460443   0.24095946   0.25932395   0.27372414
   0.29040306   0.30741048   0.3137596    0.32865739   0.34754448
   0.35716069   0.36161919   0.38477043   0.40155443   0.4137495
   0.43124623   0.43829746   0.45294384   0.46439801   0.47599142
   0.50233481   0.51056531   0.52391998   0.5432528    0.55640851
   0.57855646   0.59196007   0.5985025    0.60452305   0.63393212
   0.64380221   0.66277547   0.71212023   0.76821608   0.781533
   0.80170702   0.84279507   0.86894079   0.89331354   0.95864485
   1.01037657   1.01198793   1.05232393   1.20047112]
nelec by numeric integration = 146.00000179448753
    CPU time for vxc     38.14 sec, wall time     15.80 sec
E1 = -4110.0942568794635  Ecoul = 1899.2818248092028  Exc = -124.89880854445963
cycle= 4 E= -835.087777271643  delta_E= -0.00487  |g|= 0.178  |ddm|= 0.722
    CPU time for cycle= 4     38.61 sec, wall time     15.87 sec
  HOMO = -0.103339511358118  LUMO = -0.0435552682755177
  mo_energy =
[-10.04868896 -10.04441765 -10.03654481 -10.03573822 -10.03524013
 -10.03121831 -10.03045424 -10.02796938 -10.02730251 -10.02692917
 -10.02584825 -10.02284051 -10.02261407 -10.02256995 -10.02184088
 -10.02052469 -10.01713888 -10.01588808 -10.01582097 -10.01066738
 -10.00610391 -10.0034893   -0.86633307  -0.84194699  -0.83088478
  -0.81439504  -0.77088451  -0.7586445   -0.75260786  -0.72999708
  -0.71626802  -0.69259666  -0.65667612  -0.65129887  -0.62966629
  -0.60545236  -0.59485541  -0.57783164  -0.56188609  -0.5351237
  -0.51210299  -0.49901368  -0.49272627  -0.48799319  -0.46016908
  -0.45652266  -0.42946174  -0.42787348  -0.41841137  -0.39940091
  -0.39386075  -0.37983587  -0.37906002  -0.37419932  -0.36758076
  -0.35883042  -0.35189929  -0.3314461   -0.32945266  -0.3166057
  -0.30378465  -0.30264445  -0.29719032  -0.28240829  -0.27010335
  -0.25123468  -0.24223846  -0.2383976   -0.22480165  -0.20251602
  -0.19876533  -0.15898473  -0.10333951  -0.04355527   0.01170065
   0.06087555   0.07561554   0.09954335   0.11056867   0.11962776
   0.18466575   0.21503395   0.24048213   0.24930013   0.27259895
   0.28760656   0.30533625   0.31236426   0.32398114   0.34526963
   0.35287906   0.36142047   0.38242169   0.40050625   0.41428649
   0.43062443   0.43726408   0.45276341   0.46162966   0.47492382
   0.50149951   0.50894369   0.52295228   0.54174196   0.5528583
   0.57792778   0.58760695   0.59420894   0.60406702   0.6320383
   0.64185097   0.66105707   0.70991265   0.77305619   0.78076327
   0.80012044   0.84433629   0.86538783   0.89092358   0.95927525
   1.00922168   1.01437783   1.04133805   1.20027341]
nelec by numeric integration = 146.00000180311247
    CPU time for vxc     37.73 sec, wall time     15.68 sec
E1 = -4110.301929161174  Ecoul = 1899.4769949255344  Exc = -124.89894864670902
cycle= 5 E= -835.100419539271  delta_E= -0.0126  |g|= 0.0503  |ddm|= 0.429
    CPU time for cycle= 5     38.24 sec, wall time     15.76 sec
  HOMO = -0.103064594837718  LUMO = -0.042594507081258
  mo_energy =
[-10.04667794 -10.04474441 -10.04033784 -10.03589552 -10.03555188
 -10.03423033 -10.02909753 -10.02897207 -10.02844146 -10.02683269
 -10.02595456 -10.02341266 -10.023011   -10.02288899 -10.02277603
 -10.02139039 -10.01443165 -10.01314569 -10.01058833 -10.01009992
 -10.00685055 -10.00599381  -0.86525144  -0.84240203  -0.83049206
  -0.81392651  -0.77176532  -0.75928349  -0.75246184  -0.73088688
  -0.7157531   -0.69218697  -0.65718514  -0.65025177  -0.63004835
  -0.60597558  -0.59450667  -0.57748225  -0.56148551  -0.53472288
  -0.51258392  -0.49971077  -0.49243263  -0.48688232  -0.46039592
  -0.45632949  -0.42846541  -0.42781272  -0.41872951  -0.39969023
  -0.39357313  -0.37904666  -0.37866948  -0.37380436  -0.36801472
  -0.35928356  -0.35217873  -0.33195543  -0.33028358  -0.31633251
  -0.3044333   -0.30241694  -0.2971675   -0.28240288  -0.26991477
  -0.25181627  -0.24178737  -0.2380534   -0.22614771  -0.20334197
  -0.1986607   -0.1588803   -0.10306459  -0.04259451   0.01171
   0.06125424   0.07465013   0.09823608   0.11042012   0.12026876
   0.18503336   0.21485938   0.24070145   0.25196814   0.27225813
   0.28825074   0.30555934   0.3113248    0.32318079   0.34507258
   0.35351147   0.36160889   0.38183113   0.39956159   0.4133582
   0.42957768   0.4364795    0.45278942   0.46183831   0.4747668
   0.5005728    0.50960855   0.52331647   0.54171665   0.5531978
   0.5777739    0.58899349   0.59414626   0.6030572    0.63360101
   0.64180361   0.66044519   0.71135044   0.77323045   0.78052543
   0.79949044   0.84468577   0.8674104    0.89210174   0.96046035
   1.00902928   1.01090526   1.04157776   1.20045197]
nelec by numeric integration = 146.00000180094753
    CPU time for vxc     37.81 sec, wall time     15.56 sec
E1 = -4110.303705741709  Ecoul = 1899.4772246950333  Exc = -124.89828117144495
cycle= 6 E= -835.101298875043  delta_E= -0.000879  |g|= 0.0149  |ddm|= 0.101
    CPU time for cycle= 6     38.37 sec, wall time     15.65 sec
  HOMO = -0.102775016242182  LUMO = -0.0419822770576514
  mo_energy =
[-10.0464511  -10.04499506 -10.03979088 -10.03622032 -10.03377917
 -10.03336445 -10.02773171 -10.0275305  -10.02644167 -10.02453788
 -10.02381432 -10.02355083 -10.02238782 -10.02158837 -10.02100614
 -10.01999062 -10.01411643 -10.01247497 -10.01076105 -10.00755115
 -10.00711249 -10.00617646  -0.86452998  -0.84195797  -0.82988722
  -0.81367604  -0.77103307  -0.75834979  -0.75179406  -0.73016933
  -0.71513103  -0.69166379  -0.65638725  -0.64994935  -0.62902634
  -0.60537956  -0.59406191  -0.57707429  -0.56102556  -0.53439783
  -0.51212841  -0.49875157  -0.49200101  -0.48670403  -0.45999572
  -0.45576168  -0.42820854  -0.42739325  -0.4184086   -0.39921724
  -0.39322472  -0.37847458  -0.37839837  -0.37316203  -0.36731963
  -0.35869267  -0.35183847  -0.33118421  -0.32943346  -0.31587685
  -0.30354065  -0.30211217  -0.29655972  -0.2821128   -0.26940669
  -0.25092384  -0.24129769  -0.23739538  -0.22504818  -0.20251283
  -0.19811151  -0.15817482  -0.10277502  -0.04198228   0.0126028
   0.06175112   0.07554413   0.09963677   0.11108535   0.12076491
   0.18533759   0.2150926    0.24106502   0.25246251   0.27266421
   0.28849922   0.30617075   0.31216719   0.3238837    0.34577839
   0.35404579   0.36178915   0.38294246   0.40032076   0.41434579
   0.4306965    0.43762254   0.45332205   0.46241545   0.47549338
   0.50179049   0.50998358   0.52365594   0.54254003   0.55365536
   0.57807016   0.58928487   0.59471402   0.6040418    0.63343778
   0.64211208   0.66110458   0.71160653   0.77334719   0.78100292
   0.80028739   0.84491961   0.86790469   0.89250489   0.96094218
   1.00910533   1.01323788   1.04196892   1.20065855]
nelec by numeric integration = 146.00000180018287
    CPU time for vxc     37.76 sec, wall time     15.53 sec
E1 = -4110.269075528814  Ecoul = 1899.4411876848878  Exc = -124.89694422231018
cycle= 7 E= -835.101368723159  delta_E= -6.98e-05  |g|= 0.00606  |ddm|= 0.0302
    CPU time for cycle= 7     38.16 sec, wall time     15.59 sec
  HOMO = -0.10268585181686  LUMO = -0.0418348779246051
  mo_energy =
[-10.04646486 -10.04450065 -10.03895688 -10.0356836  -10.03362614
 -10.03308268 -10.02726181 -10.02716983 -10.02601231 -10.02519013
 -10.02387749 -10.02325091 -10.02265075 -10.0213168  -10.0212126
 -10.01943496 -10.01377784 -10.01293792 -10.01098587 -10.00731566
 -10.00654524 -10.0063079   -0.8644255   -0.84168501  -0.82982531
  -0.81346879  -0.77084393  -0.75827098  -0.7516889   -0.73001561
  -0.71498896  -0.69159148  -0.65635682  -0.64977346  -0.62903458
  -0.60519742  -0.59396782  -0.576897    -0.56089939  -0.53425839
  -0.5119026   -0.49877587  -0.49184805  -0.4865834   -0.4598459
  -0.45575702  -0.42807168  -0.42735175  -0.41819387  -0.3990932
  -0.39313514  -0.37838982  -0.37829034  -0.37307722  -0.36720165
  -0.3585452   -0.35160552  -0.33108008  -0.32937603  -0.31577594
  -0.30343465  -0.30198025  -0.29652793  -0.28190942  -0.26934818
  -0.25081526  -0.24113949  -0.23739216  -0.22498626  -0.20233833
  -0.19793803  -0.15815142  -0.10268585  -0.04183488   0.01262804
   0.06192213   0.07575732   0.09959162   0.11125873   0.12095798
   0.18543814   0.21513511   0.24105614   0.25249206   0.27290371
   0.28867769   0.30634599   0.31230452   0.32406906   0.34581857
   0.3540853    0.36168988   0.38292537   0.40056372   0.41420764
   0.4308358    0.43760242   0.4534803    0.46261473   0.47560971
   0.50178137   0.51015816   0.52381688   0.54265147   0.55383092
   0.57834777   0.58950549   0.59488564   0.60412076   0.6337586
   0.64237193   0.66136187   0.71180733   0.77358241   0.78121128
   0.80039227   0.84518574   0.86803296   0.89272801   0.96078984
   1.00937072   1.01284749   1.04218302   1.20075984]
nelec by numeric integration = 146.0000018007335
    CPU time for vxc     38.66 sec, wall time     15.83 sec
E1 = -4110.250247739708  Ecoul = 1899.422168432124  Exc = -124.89676595586799
cycle= 8 E= -835.101381920375  delta_E= -1.32e-05  |g|= 0.00106  |ddm|= 0.0102
    CPU time for cycle= 8     39.11 sec, wall time     15.90 sec
  HOMO = -0.10267261800662  LUMO = -0.0417756237388281
  mo_energy =
[-10.04644496 -10.04441595 -10.03879811 -10.03561861 -10.03378185
 -10.03316873 -10.02732585 -10.02711153 -10.02615967 -10.02533251
 -10.02395107 -10.0235211  -10.02273204 -10.02128419 -10.02118817
 -10.01951778 -10.01360841 -10.01284115 -10.01071562 -10.00730007
 -10.00661527 -10.00650749  -0.86453508  -0.84164907  -0.82985632
  -0.81347524  -0.7708522   -0.75830787  -0.7516621   -0.73000068
  -0.71502536  -0.69166104  -0.65636028  -0.64973451  -0.62910713
  -0.60517589  -0.59399895  -0.57691862  -0.56090952  -0.53424217
  -0.51188685  -0.49883078  -0.49188428  -0.48663694  -0.459822
  -0.45577581  -0.42810858  -0.42734659  -0.41816711  -0.39907764
  -0.39315433  -0.37842807  -0.37829639  -0.37315205  -0.36720845
  -0.35853368  -0.35157751  -0.33107647  -0.32939314  -0.31578994
  -0.30341827  -0.30199897  -0.29657309  -0.28187228  -0.26932502
  -0.25082182  -0.2411535   -0.23742089  -0.22501097  -0.20231232
  -0.19795979  -0.15822187  -0.10267262  -0.04177562   0.01257259
   0.06192161   0.07577567   0.09953343   0.11119845   0.12101537
   0.18543182   0.2151436    0.24104002   0.25250083   0.27293592
   0.28870149   0.30629641   0.31231624   0.32411259   0.34581995
   0.3540854    0.36169025   0.38289942   0.40059817   0.41417799
   0.43081872   0.43756652   0.45342696   0.46260331   0.47561764
   0.50172789   0.51018793   0.52384879   0.54257235   0.5538277
   0.57832971   0.5895137    0.59489318   0.60406715   0.63362386
   0.64242042   0.66140002   0.71172282   0.77360706   0.78122548
   0.80039296   0.84516721   0.86789613   0.89264559   0.96074165
   1.0094129    1.01276057   1.04222621   1.20076799]
nelec by numeric integration = 146.0000018005992
    CPU time for vxc     38.58 sec, wall time     15.87 sec
E1 = -4110.251719218173  Ecoul = 1899.4236643623474  Exc = -124.89679076460682
cycle= 9 E= -835.101382277355  delta_E= -3.57e-07  |g|= 0.000442  |ddm|= 0.00211
    CPU time for cycle= 9     39.03 sec, wall time     15.94 sec
  HOMO = -0.102712625651166  LUMO = -0.0417932505769493
  mo_energy =
[-10.04642177 -10.0444733  -10.03890745 -10.03571282 -10.0337271
 -10.03317424 -10.02735281 -10.02719064 -10.02611775 -10.02529574
 -10.02396305 -10.02348811 -10.02275081 -10.02129195 -10.02123729
 -10.0194936  -10.01371908 -10.01282818 -10.01080643 -10.00734411
 -10.0065715  -10.00655984  -0.86452701  -0.84168658  -0.82987162
  -0.81350351  -0.77086488  -0.75831703  -0.75168886  -0.73002451
  -0.71503061  -0.69166235  -0.65637803  -0.64976066  -0.6291016
  -0.60519544  -0.59401171  -0.57692784  -0.5609287   -0.53426348
  -0.5119031   -0.49883031  -0.49189241  -0.48663731  -0.45984151
  -0.45578781  -0.42811494  -0.42736887  -0.41819958  -0.39908938
  -0.39315968  -0.37843347  -0.37831163  -0.37315136  -0.36722404
  -0.35855534  -0.35161447  -0.33109349  -0.32940881  -0.31580672
  -0.30342078  -0.30201119  -0.29657749  -0.28190621  -0.26934049
  -0.25083974  -0.2411713   -0.23742612  -0.2250177   -0.20233286
  -0.19796926  -0.15822486  -0.10271263  -0.04179325   0.01257229
   0.06190668   0.07575317   0.09953222   0.11119781   0.12097702
   0.18541148   0.21513007   0.24103269   0.252491     0.27289815
   0.28866971   0.30628871   0.31230793   0.3240932    0.34582227
   0.35407866   0.36168419   0.38289084   0.40056684   0.41417
   0.43080326   0.43755389   0.45341658   0.46258817   0.47560407
   0.50172414   0.51016334   0.52382609   0.54257265   0.55380718
   0.57831339   0.58948811   0.59487292   0.6040626    0.63364026
   0.6423758    0.66137184   0.71172427   0.77355995   0.78118626
   0.80036075   0.84513436   0.86791418   0.89264436   0.96072512
   1.00938589   1.0127722    1.04221005   1.20076895]
nelec by numeric integration = 146.00000180063418
    CPU time for vxc     37.67 sec, wall time     15.63 sec
E1 = -4110.253495177723  Ecoul = 1899.425470372149  Exc = -124.89682088403455
cycle= 10 E= -835.101382346531  delta_E= -6.92e-08  |g|= 0.000141  |ddm|= 0.00081
    CPU time for cycle= 10     38.18 sec, wall time     15.71 sec
  HOMO = -0.102716511335704  LUMO = -0.0417983749309058
  mo_energy =
[-10.04646308 -10.0444894  -10.0389074  -10.03569781 -10.03373386
 -10.03317942 -10.02732877 -10.02717277 -10.02612807 -10.02530423
 -10.02395468 -10.02346975 -10.02272595 -10.02132523 -10.02122564
 -10.01951051 -10.01371181 -10.01286708 -10.0107995  -10.0073132
 -10.00659098 -10.00656541  -0.86452258  -0.84169047  -0.82986994
  -0.81350222  -0.77087352  -0.7583186   -0.75168939  -0.73002964
  -0.71503179  -0.69165819  -0.65637895  -0.64976393  -0.62910185
  -0.60520041  -0.59400768  -0.57692963  -0.56092566  -0.53426474
  -0.51191224  -0.49883041  -0.49189405  -0.4866356   -0.45984501
  -0.4557839   -0.42811289  -0.42736472  -0.41819883  -0.39909658
  -0.39315978  -0.37842865  -0.37831289  -0.3731476   -0.36722537
  -0.35855631  -0.35161306  -0.33109619  -0.3294085   -0.31580402
  -0.30343194  -0.30201019  -0.29657369  -0.28190498  -0.26934061
  -0.25084194  -0.24117059  -0.23742309  -0.2250207   -0.20233807
  -0.19797141  -0.15822122  -0.10271651  -0.04179837   0.01257388
   0.06190226   0.07574648   0.09953415   0.11119597   0.12097673
   0.18541459   0.2151318    0.24103667   0.25249147   0.27289931
   0.28867353   0.30628972   0.31229921   0.32408511   0.34581529
   0.35407627   0.36168987   0.38289178   0.40056559   0.41417754
   0.43080205   0.43755857   0.45341939   0.46258606   0.47559998
   0.50172556   0.51015898   0.52382165   0.54257464   0.55380651
   0.57831027   0.58949002   0.59487194   0.60406317   0.63364221
   0.64237717   0.66136389   0.71172748   0.77356601   0.78118868
   0.80036432   0.84513845   0.86791925   0.89264656   0.96073708
   1.00937363   1.01277083   1.04219656   1.20074839]
nelec by numeric integration = 146.00000180062818
    CPU time for vxc     38.46 sec, wall time     15.73 sec
E1 = -4110.253154890863  Ecoul = 1899.425131634389  Exc = -124.89682243924813
cycle= 11 E= -835.101382352645  delta_E= -6.11e-09  |g|= 6e-05  |ddm|= 0.000269
    CPU time for cycle= 11     38.93 sec, wall time     15.81 sec
  HOMO = -0.102713295635583  LUMO = -0.0417937731675767
  mo_energy =
[-10.04645523 -10.04448377 -10.03890332 -10.03569655 -10.03373562
 -10.03317512 -10.0273408  -10.02717322 -10.02612746 -10.02529534
 -10.02395445 -10.0234681  -10.02272415 -10.02130739 -10.02122125
 -10.01951343 -10.01371504 -10.01286096 -10.01079685 -10.0073159
 -10.0065778  -10.00655782  -0.86452104  -0.84168825  -0.829868
  -0.81350048  -0.77086947  -0.758316    -0.75168811  -0.73002635
  -0.71503102  -0.69165626  -0.65637746  -0.64975914  -0.62909972
  -0.60519883  -0.59400651  -0.57692845  -0.56092387  -0.53426381
  -0.51190937  -0.49882767  -0.49189124  -0.48663404  -0.45984368
  -0.45578313  -0.42811083  -0.42736465  -0.41819673  -0.3990949
  -0.39315923  -0.37842752  -0.37831078  -0.3731462   -0.36722273
  -0.35855443  -0.35161185  -0.33109428  -0.32940592  -0.31580247
  -0.30343154  -0.302009    -0.29657316  -0.2819038   -0.2693394
  -0.25083817  -0.24116934  -0.2374216   -0.22501883  -0.20233562
  -0.19797067  -0.1582191   -0.1027133   -0.04179377   0.01257648
   0.06190356   0.07574772   0.0995363    0.11119777   0.12097945
   0.18541563   0.21513214   0.24103678   0.25249322   0.2729004
   0.28867522   0.30629179   0.31230075   0.32408855   0.34581569
   0.35407826   0.36168953   0.3828933    0.40056523   0.41417691
   0.43080294   0.43755969   0.4534213    0.46258804   0.47560089
   0.5017276    0.5101604    0.52382298   0.54257683   0.55381026
   0.57831329   0.58949122   0.59487307   0.60406494   0.633645
   0.6423791    0.66136555   0.71172877   0.77356644   0.78119008
   0.80036581   0.8451404    0.8679206    0.89264824   0.96073902
   1.00937788   1.01277522   1.04220467   1.20075194]
nelec by numeric integration = 146.00000180062446
    CPU time for vxc     38.04 sec, wall time     15.73 sec
E1 = -4110.25308646507  Ecoul = 1899.4250580290545  Exc = -124.89681726099113
cycle= 12 E= -835.101382353929  delta_E= -1.28e-09  |g|= 2.53e-05  |ddm|= 0.000133
    CPU time for cycle= 12     38.51 sec, wall time     15.81 sec
  HOMO = -0.102713805799196  LUMO = -0.0417938071226481
  mo_energy =
[-10.04645145 -10.04448343 -10.03890296 -10.03569766 -10.03373295
 -10.03317545 -10.02733739 -10.02717423 -10.02612566 -10.02529862
 -10.02395486 -10.02346885 -10.02272813 -10.02131234 -10.02122389
 -10.01950777 -10.01371149 -10.01285738 -10.01079578 -10.00731763
 -10.00658092 -10.0065605   -0.86452142  -0.84168778  -0.82986841
  -0.81350046  -0.77086948  -0.75831634  -0.75168762  -0.73002659
  -0.7150304   -0.69165728  -0.65637726  -0.64976007  -0.62909995
  -0.60519793  -0.59400707  -0.5769279   -0.56092431  -0.53426324
  -0.51190842  -0.49882852  -0.49189162  -0.48663442  -0.4598433
  -0.45578333  -0.42811167  -0.42736439  -0.41819713  -0.39909384
  -0.39315902  -0.37842803  -0.37831062  -0.37314664  -0.36722299
  -0.35855435  -0.3516117   -0.33109396  -0.32940657  -0.31580281
  -0.303429    -0.30200908  -0.29657343  -0.28190363  -0.26933955
  -0.25083884  -0.2411691   -0.23742225  -0.22501847  -0.2023347
  -0.19796975  -0.15822017  -0.10271381  -0.04179381   0.01257575
   0.06190444   0.07574892   0.09953564   0.111198     0.12097937
   0.18541527   0.2151316    0.24103614   0.25249378   0.27290071
   0.28867484   0.30629157   0.31230219   0.32408891   0.34581745
   0.35407861   0.36168855   0.38289318   0.40056666   0.41417629
   0.43080366   0.43755926   0.45342061   0.46258828   0.47560184
   0.50172712   0.51016163   0.52382391   0.54257613   0.5538093
   0.57831296   0.58949167   0.5948737    0.60406471   0.6336438
   0.64237908   0.6613672    0.71172883   0.77356652   0.78118997
   0.80036544   0.84514      0.86792027   0.8926483    0.96073657
   1.00937796   1.01277337   1.04220296   1.20075401]
nelec by numeric integration = 146.00000180062625
    CPU time for vxc     38.32 sec, wall time     15.77 sec
E1 = -4110.253089509952  Ecoul = 1899.4250611353204  Exc = -124.89681732261569
cycle= 13 E= -835.10138235417  delta_E= -2.41e-10  |g|= 9.82e-06  |ddm|= 5.43e-05
    CPU time for cycle= 13     38.58 sec, wall time     15.82 sec
  HOMO = -0.102713655796461  LUMO = -0.0417933920554822
  mo_energy =
[-10.04645297 -10.04448324 -10.03890298 -10.03569768 -10.03373306
 -10.03317597 -10.02733604 -10.02717278 -10.02612622 -10.02529916
 -10.02395549 -10.0234697  -10.02272847 -10.02131006 -10.02122451
 -10.01950796 -10.01371226 -10.01285675 -10.01079448 -10.00731853
 -10.00658193 -10.00656078  -0.86452183  -0.84168772  -0.82986872
  -0.81350068  -0.77086954  -0.75831652  -0.75168737  -0.73002651
  -0.71503043  -0.6916576   -0.65637748  -0.64975945  -0.62910023
  -0.60519774  -0.59400717  -0.57692799  -0.56092427  -0.53426325
  -0.51190843  -0.4988288   -0.49189177  -0.48663464  -0.45984313
  -0.45578351  -0.42811174  -0.4273645   -0.41819695  -0.39909391
  -0.3931591   -0.37842827  -0.37831047  -0.37314695  -0.367223
  -0.35855421  -0.35161162  -0.331094    -0.32940675  -0.31580286
  -0.30342901  -0.30200923  -0.29657367  -0.28190335  -0.26933922
  -0.25083864  -0.241169    -0.2374223   -0.22501871  -0.20233452
  -0.19796974  -0.15822047  -0.10271366  -0.04179339   0.0125755
   0.06190443   0.07574898   0.09953532   0.11119767   0.12097999
   0.18541509   0.21513151   0.24103602   0.25249409   0.27290086
   0.28867506   0.30629142   0.31230224   0.32408941   0.34581748
   0.3540787    0.36168839   0.38289314   0.40056698   0.41417602
   0.43080364   0.43755907   0.45342032   0.46258844   0.47560199
   0.50172683   0.51016167   0.52382398   0.54257576   0.55380947
   0.5783129    0.58949181   0.59487376   0.60406434   0.63364344
   0.64237939   0.6613673    0.71172855   0.77356625   0.7811898
   0.80036529   0.84513977   0.8679198    0.892648     0.96073614
   1.00937813   1.01277292   1.04220402   1.20075329]
nelec by numeric integration = 146.0000018006253
    CPU time for vxc     38.00 sec, wall time     15.59 sec
E1 = -4110.253085438633  Ecoul = 1899.4250573814434  Exc = -124.8968176400868
cycle= 14 E= -835.101382354199  delta_E= -2.96e-11  |g|= 5.65e-06  |ddm|= 3.14e-05
    CPU time for cycle= 14     38.33 sec, wall time     15.65 sec
  HOMO = -0.102714300755004  LUMO = -0.0417942819155402
  mo_energy =
[-10.04645209 -10.04448389 -10.03890324 -10.03569745 -10.0337337
 -10.03317527 -10.02733823 -10.02717482 -10.02612629 -10.02529811
 -10.02395459 -10.02347031 -10.02272793 -10.02131436 -10.02122393
 -10.01950779 -10.01371171 -10.0128582  -10.01079796 -10.00731726
 -10.00657962 -10.00656111  -0.86452178  -0.84168813  -0.82986861
  -0.81350067  -0.77086985  -0.75831654  -0.75168813  -0.73002685
  -0.71503075  -0.69165738  -0.65637727  -0.64976073  -0.6291001
  -0.60519825  -0.59400725  -0.57692819  -0.56092454  -0.5342635
  -0.51190877  -0.49882858  -0.49189188  -0.48663468  -0.45984354
  -0.45578347  -0.42811186  -0.42736452  -0.4181973   -0.39909402
  -0.39315919  -0.37842825  -0.37831109  -0.37314688  -0.3672232
  -0.35855457  -0.35161194  -0.33109418  -0.32940663  -0.31580299
  -0.30342927  -0.30200926  -0.29657357  -0.28190388  -0.26933983
  -0.25083918  -0.2411695   -0.23742246  -0.22501862  -0.20233498
  -0.19797005  -0.15822032  -0.1027143   -0.04179428   0.0125756
   0.06190412   0.07574848   0.09953557   0.11119782   0.12097874
   0.18541518   0.21513172   0.24103618   0.25249297   0.27290047
   0.28867455   0.30629129   0.31230198   0.32408849   0.34581718
   0.35407819   0.36168873   0.38289298   0.40056638   0.41417641
   0.43080346   0.43755916   0.45342049   0.46258789   0.47560161
   0.50172704   0.51016126   0.52382363   0.54257594   0.55380898
   0.57831282   0.58949121   0.59487335   0.60406469   0.6336435
   0.64237885   0.66136684   0.71172843   0.77356657   0.78118968
   0.80036521   0.84513987   0.86791978   0.89264791   0.96073664
   1.00937744   1.01277369   1.04220195   1.20075355]
nelec by numeric integration = 146.00000180062634
    CPU time for vxc     39.02 sec, wall time     15.91 sec
E1 = -4110.253113862613  Ecoul = 1899.4250859060758  Exc = -124.89681774051772
Extra cycle  E= -835.101382353977  delta_E= 2.22e-10  |g|= 2.35e-05  |ddm|= 5.82e-05
    CPU time for scf_cycle    625.80 sec, wall time    254.63 sec
    CPU time for SCF    625.80 sec, wall time    254.63 sec
converged SCF energy = -835.101382353977
nelec by numeric integration = 146.00000180062634
    CPU time for vxc     38.03 sec, wall time     15.60 sec
 ** Mulliken pop  **
pop of  0 C 1s            1.99087
pop of  0 C 2s            1.12205
pop of  0 C 2px           0.96496
pop of  0 C 2py           0.93781
pop of  0 C 2pz           0.94328
pop of  1 C 1s            1.99081
pop of  1 C 2s            1.16276
pop of  1 C 2px           0.98008
pop of  1 C 2py           0.93395
pop of  1 C 2pz           0.92869
pop of  2 C 1s            1.99119
pop of  2 C 2s            1.03365
pop of  2 C 2px           1.06950
pop of  2 C 2py           0.98559
pop of  2 C 2pz           1.11300
pop of  3 C 1s            1.99202
pop of  3 C 2s            1.14137
pop of  3 C 2px           1.02289
pop of  3 C 2py           0.94863
pop of  3 C 2pz           1.06380
pop of  4 C 1s            1.99151
pop of  4 C 2s            1.24525
pop of  4 C 2px           0.92734
pop of  4 C 2py           0.93379
pop of  4 C 2pz           0.94880
pop of  5 C 1s            1.99066
pop of  5 C 2s            1.12998
pop of  5 C 2px           1.01420
pop of  5 C 2py           0.94821
pop of  5 C 2pz           1.00125
pop of  6 C 1s            1.99121
pop of  6 C 2s            1.18981
pop of  6 C 2px           0.99035
pop of  6 C 2py           0.93991
pop of  6 C 2pz           0.92655
pop of  7 C 1s            1.99183
pop of  7 C 2s            1.05105
pop of  7 C 2px           1.04389
pop of  7 C 2py           1.11044
pop of  7 C 2pz           1.00822
pop of  8 C 1s            1.99089
pop of  8 C 2s            1.16769
pop of  8 C 2px           0.95651
pop of  8 C 2py           0.94500
pop of  8 C 2pz           0.92742
pop of  9 C 1s            1.99047
pop of  9 C 2s            1.08535
pop of  9 C 2px           1.00202
pop of  9 C 2py           0.99214
pop of  9 C 2pz           0.94832
pop of  10 C 1s           1.99175
pop of  10 C 2s           1.26396
pop of  10 C 2px          0.93183
pop of  10 C 2py          0.91803
pop of  10 C 2pz          0.93251
pop of  11 C 1s           1.99073
pop of  11 C 2s           1.12330
pop of  11 C 2px          1.02688
pop of  11 C 2py          0.94356
pop of  11 C 2pz          1.01248
pop of  12 C 1s           1.99092
pop of  12 C 2s           1.09995
pop of  12 C 2px          0.99455
pop of  12 C 2py          0.94430
pop of  12 C 2pz          0.96400
pop of  13 C 1s           1.99082
pop of  13 C 2s           1.14918
pop of  13 C 2px          0.97819
pop of  13 C 2py          0.93062
pop of  13 C 2pz          0.93305
pop of  14 C 1s           1.99040
pop of  14 C 2s           1.06007
pop of  14 C 2px          1.01809
pop of  14 C 2py          1.00772
pop of  14 C 2pz          1.06287
pop of  15 C 1s           1.99175
pop of  15 C 2s           1.10866
pop of  15 C 2px          1.04602
pop of  15 C 2py          0.96598
pop of  15 C 2pz          1.06090
pop of  16 C 1s           1.99065
pop of  16 C 2s           1.10088
pop of  16 C 2px          0.98926
pop of  16 C 2py          0.96583
pop of  16 C 2pz          0.94521
pop of  17 C 1s           1.99087
pop of  17 C 2s           1.16127
pop of  17 C 2px          0.94869
pop of  17 C 2py          0.93936
pop of  17 C 2pz          0.93384
pop of  18 C 1s           1.99090
pop of  18 C 2s           1.15413
pop of  18 C 2px          0.98889
pop of  18 C 2py          0.94359
pop of  18 C 2pz          1.00935
pop of  19 C 1s           1.99103
pop of  19 C 2s           1.16760
pop of  19 C 2px          0.97753
pop of  19 C 2py          0.94313
pop of  19 C 2pz          0.97503
pop of  20 C 1s           1.99110
pop of  20 C 2s           1.11541
pop of  20 C 2px          0.98936
pop of  20 C 2py          0.97732
pop of  20 C 2pz          0.99011
pop of  21 C 1s           1.99100
pop of  21 C 2s           1.08813
pop of  21 C 2px          0.99855
pop of  21 C 2py          1.00291
pop of  21 C 2pz          1.01029
pop of  22 H 1s           0.85375
pop of  23 H 1s           0.87973
pop of  24 H 1s           0.92938
pop of  25 H 1s           0.91191
pop of  26 H 1s           0.91001
pop of  27 H 1s           0.85061
pop of  28 H 1s           0.92396
pop of  29 H 1s           0.90357
pop of  30 H 1s           0.87933
pop of  31 H 1s           0.87878
pop of  32 H 1s           0.90434
pop of  33 H 1s           0.92392
pop of  34 H 1s           0.93400
pop of  35 H 1s           0.93551
 ** Mulliken atomic charges  **
charge of    0C =      0.04103
charge of    1C =      0.00370
charge of    2C =     -0.19292
charge of    3C =     -0.16870
charge of    4C =     -0.04668
charge of    5C =     -0.08429
charge of    6C =     -0.03782
charge of    7C =     -0.20543
charge of    8C =      0.01248
charge of    9C =     -0.01830
charge of   10C =     -0.03809
charge of   11C =     -0.09694
charge of   12C =      0.00627
charge of   13C =      0.01815
charge of   14C =     -0.13916
charge of   15C =     -0.17331
charge of   16C =      0.00818
charge of   17C =      0.02597
charge of   18C =     -0.08686
charge of   19C =     -0.05432
charge of   20C =     -0.06330
charge of   21C =     -0.09087
charge of   22H =      0.14625
charge of   23H =      0.12027
charge of   24H =      0.07062
charge of   25H =      0.08809
charge of   26H =      0.08999
charge of   27H =      0.14939
charge of   28H =      0.07604
charge of   29H =      0.09643
charge of   30H =      0.12067
charge of   31H =      0.12122
charge of   32H =      0.09566
charge of   33H =      0.07608
charge of   34H =      0.06600
charge of   35H =      0.06449
Dipole moment(X, Y, Z, Debye):  0.46355, -0.46289, -0.65326
nelec by numeric integration = 146.00000180062634
    CPU time for vxc     37.83 sec, wall time     15.67 sec
E1 = -4110.253113862613  Ecoul = 1899.4250859060753  Exc = -124.89681774051772
nelec by numeric integration = 146.00000180062634
    CPU time for vxc     38.23 sec, wall time     15.76 sec
E1 = -4110.253113862613  Ecoul = 1899.4250859060753  Exc = -124.89681774051772
