System: uname_result(system='Linux', node='cosmopc18', release='5.15.0-97-generic', version='#107-Ubuntu SMP Wed Feb 7 13:26:48 UTC 2024', machine='x86_64')  Threads 4
Python 3.11.8 (main, Feb 26 2024, 21:39:34) [GCC 11.2.0]
numpy 1.26.4  scipy 1.11.4
Date: Tue Apr  9 09:48:20 2024
PySCF version 2.3.0
PySCF path  /home/saade/miniconda3/envs/tutorial/lib/python3.11/site-packages/pyscf

[ENV] PYSCFAD_BACKEND torch
[CONFIG] conf_file None
[INPUT] verbose = 5
[INPUT] max_memory = 4000 
[INPUT] num. atoms = 36
[INPUT] num. electrons = 146
[INPUT] charge = 0
[INPUT] spin (= nelec alpha-beta = 2S) = 0
[INPUT] symmetry False subgroup None
[INPUT] Mole.unit = angstrom
[INPUT] Symbol           X                Y                Z      unit          X                Y                Z       unit  Magmom
[INPUT]  1 C     -0.016821000000   3.573622000000   0.711493000000 AA   -0.031787083141   6.753166852720   1.344526909545 Bohr   0.0
[INPUT]  2 C      0.088966000000   3.828885000000  -0.682200000000 AA    0.168121374398   7.235544012455  -1.289171162178 Bohr   0.0
[INPUT]  3 C     -0.103097000000   4.941326000000   1.420002000000 AA   -0.194825094264   9.337752832193   2.683414876335 Bohr   0.0
[INPUT]  4 C      0.063739000000   2.515585000000   1.568689000000 AA    0.120449253454   4.753766693064   2.964392584618 Bohr   0.0
[INPUT]  5 C      0.001418000000   4.794842000000  -1.278535000000 AA    0.002679631645   9.060938190562  -2.416080990671 Bohr   0.0
[INPUT]  6 C     -0.075474000000   2.370913000000  -1.356794000000 AA   -0.142625189525   4.480376235171  -2.563969067453 Bohr   0.0
[INPUT]  7 C     -0.063374000000   5.963636000000  -0.721904000000 AA   -0.119759503418  11.269638746597  -1.364200848228 Bohr   0.0
[INPUT]  8 C      0.079930000000   6.332298000000   0.848915000000 AA    0.151045809136  11.966308959131   1.604216853035 Bohr   0.0
[INPUT]  9 C      0.101224000000   1.278712000000   0.597787000000 AA    0.191285637233   2.416415472195   1.129653710825 Bohr   0.0
[INPUT] 10 C      0.078745000000   1.013974000000  -0.821316000000 AA    0.148806483679   1.916133157430  -1.552062301723 Bohr   0.0
[INPUT] 11 C      0.007899000000   0.046565000000   1.339355000000 AA    0.014926946658   0.087995096990   2.531014133567 Bohr   0.0
[INPUT] 12 C     -0.058715000000   0.033297000000  -1.277922000000 AA   -0.110955269404   0.062922210770  -2.414922588556 Bohr   0.0
[INPUT] 13 C      0.012858000000  -1.129594000000   0.784422000000 AA    0.024298098510  -2.134623291952   1.482342746084 Bohr   0.0
[INPUT] 14 C      0.050162000000  -1.222771000000  -0.740462000000 AA    0.094792441860  -2.310702303061  -1.399270385648 Bohr   0.0
[INPUT] 15 C      0.004302000000  -2.367611000000   1.509675000000 AA    0.008129601788  -4.474136359508   2.852872287103 Bohr   0.0
[INPUT] 16 C      0.082723000000  -2.506801000000  -1.488348000000 AA    0.156323814202  -4.737167338786  -2.812570098044 Bohr   0.0
[INPUT] 17 C     -0.020007000000  -3.738724000000   0.622556000000 AA   -0.037807750574  -7.065164415338   1.176460337205 Bohr   0.0
[INPUT] 18 C      0.333952000000  -3.826652000000  -0.741192000000 AA    0.631077818751  -7.231324254019  -1.400649885719 Bohr   0.0
[INPUT] 19 C      0.008802000000  -5.107484000000   1.397857000000 AA    0.016633369348  -9.651745945598   2.641566891306 Bohr   0.0
[INPUT] 20 C      0.044586000000  -4.984317000000  -1.424720000000 AA    0.084255328990  -9.418994048014  -2.692330604190 Bohr   0.0
[INPUT] 21 C     -0.170744000000  -5.968885000000   0.790202000000 AA   -0.322659397413 -11.279557919025   1.493265363084 Bohr   0.0
[INPUT] 22 C      0.141404000000  -6.008208000000  -0.710429000000 AA    0.267214832918 -11.353867619421  -1.342516240949 Bohr   0.0
[INPUT] 23 H     -0.027635000000   4.863674000000   2.475689000000 AA   -0.052222581452   9.191011819168   4.678374179598 Bohr   0.0
[INPUT] 24 H      0.155318000000   2.473905000000   2.365379000000 AA    0.293508482215   4.675002908192   4.469918490798 Bohr   0.0
[INPUT] 25 H     -0.091684000000   4.971814000000  -2.587562000000 AA   -0.173257650005   9.395366802278  -4.889783510332 Bohr   0.0
[INPUT] 26 H     -0.026927000000   2.407780000000  -2.546334000000 AA   -0.050884655356   4.550044768205  -4.811873881668 Bohr   0.0
[INPUT] 27 H     -0.005864000000   7.186911000000  -1.189287000000 AA   -0.011081353994  13.581293471624  -2.247426713506 Bohr   0.0
[INPUT] 28 H     -0.006412000000   6.966594000000   1.333803000000 AA   -0.012116923911  13.164954681038   2.520522374123 Bohr   0.0
[INPUT] 29 H     -0.039822000000  -0.134220000000   2.490688000000 AA   -0.075252673732  -0.253639040439   4.706718181741 Bohr   0.0
[INPUT] 30 H      0.105341000000   0.006147000000  -2.298551000000 AA    0.199065639688   0.011616146488  -4.343631873345 Bohr   0.0
[INPUT] 31 H     -0.083446000000  -2.514645000000   2.490653000000 AA   -0.157690086190  -4.751990350507   4.706652041326 Bohr   0.0
[INPUT] 32 H      0.077105000000  -2.534204000000  -2.274000000000 AA    0.145707332835  -4.788951503777  -4.297237207261 Bohr   0.0
[INPUT] 33 H     -0.126944000000  -4.838166000000   2.403529000000 AA   -0.239889393157  -9.142808685182   4.542011542450 Bohr   0.0
[INPUT] 34 H     -0.043986000000  -5.007307000000  -2.334707000000 AA   -0.083121493315  -9.462438851618  -4.411956811105 Bohr   0.0
[INPUT] 35 H      0.015135000000  -7.208710000000   1.383016000000 AA    0.028601004895 -13.622487611413   2.613521465891 Bohr   0.0
[INPUT] 36 H     -0.053073000000  -6.791716000000  -1.090672000000 AA   -0.100293434609 -12.834483155827  -2.061071371732 Bohr   0.0
[INPUT] ---------------- BASIS SET ---------------- 
[INPUT] l, kappa, [nprim/nctr], expnt,             c_1 c_2 ...
[INPUT] H
[INPUT] 0    0    [3    /1   ]  3.42525091        0.15432897
                                0.62391373        0.53532814
                                0.1688554         0.44463454
[INPUT] C
[INPUT] 0    0    [3    /1   ]  71.616837         0.15432897
                                13.045096         0.53532814
                                3.5305122         0.44463454
[INPUT] 0    0    [3    /1   ]  2.9412494         -0.09996723
                                0.6834831         0.39951283
                                0.2222899         0.70011547
[INPUT] 1    0    [3    /1   ]  2.9412494         0.15591627
                                0.6834831         0.60768372
                                0.2222899         0.39195739

nuclear repulsion = 1501.00291021261
number of shells = 80
number of NR pGTOs = 372
number of NR cGTOs = 124
basis = sto3g
ecp = {}
CPU time:       935.28
atom C rad-grids = 99, ang-grids = [ 50  50  50  50  50  50  50  50  50  50  50  50  50  50  50  50  50  50
  50  50  50  50  50  50  50  50  50  50  50  50  50  86  86  86  86  86
  86  86  86  86  86  86  86 434 434 434 434 434 434 434 434 434 590 590
 590 590 590 590 590 590 590 590 590 590 590 590 590 590 590 590 590 590
 590 590 590 590 590 590 590 434 434 434 434 434 434 434 434 434 434 434
 434 434 434 434 434 434 434 434 434]
atom H rad-grids = 99, ang-grids = [ 50  50  50  50  50  50  50  50  50  50  50  50  50  50  50  50  50  50
  50  50  50  50  50  50  50  50  50  50  86  86  86  86  86  86  86 434
 434 434 434 434 434 434 434 590 590 590 590 590 590 590 590 590 590 590
 590 590 590 590 590 590 590 590 590 590 590 590 590 590 590 434 434 434
 434 434 434 434 434 434 434 434 434 434 434 434 434 434 434 434 434 434
 434 434 434 434 434 434 434 434 434]
tot_boxes 5440, boxes in each direction [ 8 30 15]
Padding 0 grids
tot grids = 1157832


******** <class 'pyscf.dft.rks.RKS'> ********
method = RKS
initial guess = minao
damping factor = 0
level_shift factor = 0
DIIS = <class 'pyscf.scf.diis.CDIIS'>
diis_start_cycle = 1
diis_space = 8
SCF conv_tol = 1e-10
SCF conv_tol_grad = None
SCF max_cycles = 50
direct_scf = True
direct_scf_tol = 1e-13
chkfile to save SCF result = /home/saade/mlelec/tutorials/tmpf8s3vq2q
max_memory 4000 MB (current use 634 MB)
XC library pyscf.dft.libxc version 6.1.0
    S. Lehtola, C. Steigemann, M. J.T. Oliveira, and M. A.L. Marques.,  SoftwareX 7, 1–5 (2018)
XC functionals = b3lypg
    P. J. Stephens, F. J. Devlin, C. F. Chabalowski, and M. J. Frisch.,  J. Phys. Chem. 98, 11623 (1994)
radial grids: 
    Treutler-Ahlrichs [JCP 102, 346 (1995); DOI:10.1063/1.469408] (M4) radial grids
    
becke partition: Becke, JCP 88, 2547 (1988); DOI:10.1063/1.454033
pruning grids: <function nwchem_prune at 0x7f9db5616ca0>
grids dens level: 3
symmetrized grids: False
atomic radii adjust function: <function treutler_atomic_radii_adjust at 0x7f9db5617380>
User specified grid scheme (99, 590)
small_rho_cutoff = 1e-07
Set gradient conv threshold to 1e-05
Initial guess from minao.
nelec by numeric integration = 145.26626569166544
    CPU time for vxc     38.84 sec, wall time     16.48 sec
E1 = -4100.040818796012  Ecoul = 1883.6197679073805  Exc = -126.37530604992735
init E= -841.793446725947
cond(S) = 33.96094350246931
    CPU time for initialize scf     49.48 sec, wall time     19.07 sec
  HOMO = -0.205759091603057  LUMO = -0.157868297972953
  mo_energy =
[-1.01872724e+01 -1.01731619e+01 -1.01618719e+01 -1.01497775e+01
 -1.01428722e+01 -1.01408117e+01 -1.01360930e+01 -1.01335580e+01
 -1.01287071e+01 -1.01221836e+01 -1.01106253e+01 -1.01084243e+01
 -1.01009041e+01 -1.00967250e+01 -1.00951087e+01 -1.00949751e+01
 -1.00903334e+01 -1.00884724e+01 -1.00737296e+01 -1.00731438e+01
 -1.00728202e+01 -1.00717078e+01 -1.12686014e+00 -1.09374572e+00
 -1.07471081e+00 -9.89160940e-01 -9.81031547e-01 -9.68300177e-01
 -9.25542281e-01 -8.95122436e-01 -8.61916616e-01 -8.43487752e-01
 -8.11735563e-01 -7.75149241e-01 -7.41532289e-01 -7.25475339e-01
 -7.08604940e-01 -7.03242097e-01 -6.71093803e-01 -6.65127973e-01
 -6.30184943e-01 -6.04113861e-01 -5.89322607e-01 -5.74605893e-01
 -5.51158470e-01 -5.39957155e-01 -5.31599697e-01 -5.16156864e-01
 -5.12154708e-01 -5.03738812e-01 -4.94175591e-01 -4.81725172e-01
 -4.71190739e-01 -4.63220572e-01 -4.61041015e-01 -4.56259653e-01
 -4.41536093e-01 -4.20667338e-01 -4.16419234e-01 -4.02339727e-01
 -3.87404169e-01 -3.77393706e-01 -3.68292363e-01 -3.51340365e-01
 -3.28470871e-01 -3.23801193e-01 -3.11481466e-01 -3.04487758e-01
 -2.97685228e-01 -2.89807985e-01 -2.69653635e-01 -2.46117715e-01
 -2.05759092e-01 -1.57868298e-01 -1.03752767e-01 -7.86286822e-02
 -5.59651182e-02 -4.28386275e-02 -1.27097439e-02  3.66298273e-03
  3.93502159e-02  4.47329805e-02  6.01888088e-02  1.11676017e-01
  1.15598625e-01  1.41621688e-01  1.59982106e-01  1.63637060e-01
  1.69617618e-01  1.80609967e-01  1.90270204e-01  2.03373486e-01
  2.19194983e-01  2.33806365e-01  2.47846747e-01  2.56758823e-01
  2.81307448e-01  2.95977987e-01  3.13863831e-01  3.38654817e-01
  3.42446689e-01  3.59254201e-01  3.72429230e-01  3.89596869e-01
  4.22298495e-01  4.43343880e-01  4.51483914e-01  4.66326873e-01
  4.80700241e-01  5.13361499e-01  5.42452955e-01  5.62618705e-01
  5.69302439e-01  6.16647599e-01  6.61486107e-01  6.93073382e-01
  7.00127115e-01  7.21800117e-01  7.90072390e-01  8.08142445e-01
  8.21829620e-01  9.31969630e-01  1.01199895e+00  1.05738621e+00]
nelec by numeric integration = 146.00000324059997
    CPU time for vxc     41.51 sec, wall time     17.68 sec
E1 = -4113.65095427763  Ecoul = 1902.7075376148132  Exc = -124.99972302814562
cycle= 1 E= -834.94022947835  delta_E= 6.85  |g|= 0.327  |ddm|= 9.36
    CPU time for cycle= 1     41.76 sec, wall time     17.73 sec
  HOMO = -0.0915189111994905  LUMO = -0.0122198796742185
  mo_energy =
[-10.05419729 -10.05209745 -10.04326473 -10.0412684  -10.03573735
 -10.03481568 -10.01848315 -10.01780368 -10.00450306 -10.00279383
 -10.00006587  -9.99325662  -9.99178218  -9.98883589  -9.98838431
  -9.98129162  -9.9790771   -9.97549256  -9.96380206  -9.96081257
  -9.92985337  -9.90984299  -0.84916837  -0.84358463  -0.82758334
  -0.76680727  -0.76488081  -0.75164741  -0.72223081  -0.71469
  -0.68191482  -0.67294533  -0.64641021  -0.62362592  -0.59550942
  -0.58603348  -0.57308706  -0.56551799  -0.54174415  -0.53055266
  -0.50449454  -0.48185349  -0.47418748  -0.45888609  -0.44855505
  -0.42944829  -0.41806549  -0.41117376  -0.40696929  -0.38694086
  -0.37944539  -0.3694933   -0.3625828   -0.35710583  -0.34984651
  -0.34899738  -0.33380412  -0.33238052  -0.31426325  -0.29695865
  -0.27828132  -0.2672549   -0.25744695  -0.24454175  -0.24130513
  -0.23046223  -0.2262148   -0.21778648  -0.20235229  -0.19709381
  -0.16555926  -0.14211158  -0.09151891  -0.01221988   0.03684995
   0.05750736   0.07864126   0.10868461   0.13366395   0.15808674
   0.1638184    0.18077781   0.20869789   0.26774908   0.2729216
   0.28030864   0.29503653   0.30010914   0.30419977   0.33174907
   0.35003385   0.35498225   0.35842669   0.38779932   0.40296338
   0.4064556    0.4368404    0.44409145   0.46957741   0.48459153
   0.4922477    0.49500311   0.50432973   0.52910265   0.56980282
   0.58796055   0.59953944   0.61572687   0.64826322   0.67245063
   0.68447603   0.69868824   0.71238682   0.78694137   0.81374619
   0.83381326   0.86015646   0.87806837   0.92225908   0.94473941
   0.9972961    1.10108177   1.23799899   1.24246516]
nelec by numeric integration = 146.00000330312633
    CPU time for vxc     39.49 sec, wall time     16.66 sec
E1 = -4109.32563975041  Ecoul = 1898.2453878790477  Exc = -124.84858030332462
cycle= 2 E= -834.925921962075  delta_E= 0.0143  |g|= 0.39  |ddm|= 1.13
    CPU time for cycle= 2     39.85 sec, wall time     16.73 sec
  HOMO = -0.107948140048008  LUMO = -0.0264157859474986
  mo_energy =
[-10.05214335 -10.04763037 -10.04284974 -10.0382045  -10.03382643
 -10.03125435 -10.02880348 -10.0263903  -10.02479334 -10.01920837
 -10.01857292 -10.01784961 -10.01564472 -10.01434668 -10.01100927
 -10.00488608 -10.00298848 -10.00057896  -9.99524158  -9.9942843
  -9.98553112  -9.96959509  -0.87797181  -0.85469051  -0.84896701
  -0.7854016   -0.77455768  -0.77067128  -0.74320913  -0.71752167
  -0.69518548  -0.67849607  -0.66297494  -0.63087841  -0.60879463
  -0.59905973  -0.58210507  -0.57673034  -0.5507534   -0.53993308
  -0.51521552  -0.49760212  -0.48698075  -0.46844788  -0.45488567
  -0.4404663   -0.43223268  -0.42062766  -0.41428202  -0.39896451
  -0.39224887  -0.38579158  -0.37591388  -0.36621165  -0.36189244
  -0.35557575  -0.35000451  -0.3320751   -0.32879455  -0.3120449
  -0.28763583  -0.28166354  -0.27105655  -0.25503333  -0.24467612
  -0.24330335  -0.22486124  -0.22313402  -0.21638347  -0.19672779
  -0.174089    -0.14766479  -0.10794814  -0.02641579   0.02888917
   0.05305984   0.08070965   0.09644762   0.12570751   0.14215304
   0.1618065    0.18138953   0.19372067   0.25369481   0.26322246
   0.28197403   0.29431738   0.30063525   0.31596983   0.32311816
   0.32400885   0.34224359   0.35295597   0.3668832    0.3914782
   0.39786054   0.41178283   0.44245024   0.45893127   0.48201326
   0.48448254   0.49487465   0.50136179   0.52980088   0.55739406
   0.58249977   0.58654843   0.60097725   0.62101022   0.65186129
   0.67635847   0.70389771   0.70906239   0.76356714   0.80608911
   0.83056141   0.84503591   0.85486403   0.91554666   0.92866874
   0.94170064   1.07617477   1.17492594   1.21630083]
nelec by numeric integration = 146.00000329183365
    CPU time for vxc     38.23 sec, wall time     15.85 sec
E1 = -4110.808185227383  Ecoul = 1899.7217666077793  Exc = -124.88325381778668
cycle= 3 E= -834.966762224778  delta_E= -0.0408  |g|= 0.197  |ddm|= 0.891
    CPU time for cycle= 3     38.84 sec, wall time     15.95 sec
  HOMO = -0.108183711117966  LUMO = -0.0283879294225552
  mo_energy =
[-10.04891511 -10.0472713  -10.04361665 -10.0405815  -10.03197086
 -10.03146107 -10.02997674 -10.02873484 -10.02637661 -10.02312007
 -10.02307019 -10.02188417 -10.02180869 -10.02132374 -10.01941092
 -10.01559896 -10.01441791 -10.01345632 -10.00991139 -10.00565394
  -9.99821546  -9.98946706  -0.87531351  -0.86097349  -0.85433421
  -0.78751413  -0.78280013  -0.77493737  -0.74089964  -0.72161433
  -0.69693372  -0.68386203  -0.66306325  -0.63599729  -0.60893575
  -0.60199091  -0.58313673  -0.58141478  -0.5533481   -0.54385563
  -0.52069393  -0.49706415  -0.49133079  -0.47074661  -0.4588732
  -0.44063925  -0.43507862  -0.42549008  -0.41669459  -0.40167101
  -0.39485444  -0.38755908  -0.3785155   -0.3719725   -0.36580498
  -0.36086767  -0.35385479  -0.33485378  -0.3293392   -0.3152191
  -0.29134312  -0.28809802  -0.27561548  -0.26081439  -0.24744348
  -0.24169703  -0.22943101  -0.22761504  -0.2177942   -0.20291482
  -0.17709369  -0.15341081  -0.10818371  -0.02838793   0.02645936
   0.05050203   0.07326116   0.09318192   0.12038809   0.1406286
   0.16357264   0.17621296   0.18699189   0.25596339   0.25782203
   0.27713588   0.29029865   0.29414413   0.30260157   0.31865273
   0.3231034    0.33789982   0.35177002   0.37310845   0.38777442
   0.39715396   0.42108167   0.43212853   0.45652751   0.47485634
   0.47938183   0.48942856   0.49768053   0.52308479   0.55534603
   0.57955623   0.58617949   0.59834896   0.62557922   0.64897318
   0.67048998   0.69329297   0.70035732   0.7575304    0.8033738
   0.82228673   0.84266994   0.85150092   0.90916325   0.92298967
   0.95934131   1.07076535   1.18035258   1.20525941]
nelec by numeric integration = 146.0000032704509
    CPU time for vxc     38.89 sec, wall time     16.12 sec
E1 = -4110.77334780862  Ecoul = 1899.6865454790977  Exc = -124.89425600892233
cycle= 4 E= -834.978148125833  delta_E= -0.0114  |g|= 0.11  |ddm|= 0.498
    CPU time for cycle= 4     39.55 sec, wall time     16.22 sec
  HOMO = -0.111826605397792  LUMO = -0.032094294632461
  mo_energy =
[-10.05494569 -10.04888419 -10.04148992 -10.04105766 -10.03554338
 -10.03257324 -10.03175792 -10.02892422 -10.02889887 -10.02834656
 -10.02776766 -10.02678327 -10.02473028 -10.02142031 -10.01895324
 -10.01824712 -10.01822712 -10.01753164 -10.01456596 -10.00775858
 -10.00755806  -9.99632414  -0.87943151  -0.86440418  -0.8548073
  -0.79034228  -0.78340673  -0.77361951  -0.74245482  -0.72278004
  -0.70028273  -0.68477023  -0.66488981  -0.63768992  -0.61100854
  -0.6021387   -0.58495037  -0.58428438  -0.55385786  -0.54649014
  -0.52189573  -0.49875467  -0.48974332  -0.47306254  -0.46135737
  -0.44409249  -0.43589104  -0.42585511  -0.41982232  -0.40308723
  -0.39612545  -0.39025759  -0.37998677  -0.37335795  -0.3661938
  -0.36301656  -0.35458566  -0.33814047  -0.33241594  -0.31828568
  -0.29329462  -0.28963974  -0.27718555  -0.26085174  -0.24930626
  -0.2458971   -0.23125781  -0.22875808  -0.21948475  -0.20459891
  -0.18061203  -0.1552311   -0.11182661  -0.03209429   0.02333191
   0.04741663   0.07117674   0.09118519   0.11982793   0.13938179
   0.16182921   0.17538331   0.18525108   0.25303324   0.25447931
   0.27634667   0.29007769   0.29359386   0.30007163   0.31865044
   0.32019639   0.33681112   0.35009881   0.36775146   0.3866694
   0.39347451   0.41489365   0.43122707   0.45425589   0.47233806
   0.47946845   0.49126417   0.4946326    0.52217787   0.55204113
   0.57669958   0.58369253   0.59438078   0.62094653   0.64602709
   0.66903243   0.69160247   0.70149987   0.75671862   0.80075877
   0.82306297   0.84119004   0.84840396   0.91371085   0.92588424
   0.95612832   1.07073359   1.17427066   1.20366143]
nelec by numeric integration = 146.00000328057348
    CPU time for vxc     38.30 sec, wall time     16.02 sec
E1 = -4111.193787545806  Ecoul = 1900.1057318824573  Exc = -124.89652330642468
cycle= 5 E= -834.981668757161  delta_E= -0.00352  |g|= 0.0498  |ddm|= 0.239
    CPU time for cycle= 5     38.68 sec, wall time     16.08 sec
  HOMO = -0.110683047069143  LUMO = -0.0306878463969532
  mo_energy =
[-10.04971468 -10.04775252 -10.03846296 -10.03835638 -10.03739735
 -10.03267299 -10.03173918 -10.02994603 -10.02898924 -10.02881427
 -10.02548195 -10.02521156 -10.02361869 -10.02359304 -10.0232543
 -10.02106949 -10.01783253 -10.01275642 -10.00796953 -10.00657366
 -10.00653627  -9.99993585  -0.87696703  -0.86346209  -0.85406258
  -0.7896408   -0.78152076  -0.77471615  -0.74345091  -0.72288307
  -0.69957128  -0.68440257  -0.66436658  -0.63717705  -0.61072093
  -0.60205822  -0.58477099  -0.58255404  -0.55414005  -0.54470698
  -0.52096157  -0.49906476  -0.49086095  -0.47189279  -0.46046735
  -0.44266087  -0.4362763   -0.42618354  -0.41843805  -0.40254895
  -0.39602052  -0.38896117  -0.37919541  -0.37214682  -0.36608061
  -0.36257597  -0.35421773  -0.3371843   -0.33173239  -0.31865402
  -0.29269339  -0.28803275  -0.27692443  -0.26140763  -0.24938994
  -0.24412643  -0.23086571  -0.22907133  -0.2201016   -0.20492142
  -0.18048731  -0.15496523  -0.11068305  -0.03068785   0.0239399
   0.04753947   0.07120211   0.09088867   0.11916939   0.13875635
   0.16289286   0.17663795   0.18703686   0.25390034   0.25544376
   0.27642961   0.28968035   0.29315035   0.30156336   0.31894979
   0.32148593   0.33761156   0.35050069   0.36938172   0.38709313
   0.39439624   0.41617296   0.4327733    0.454739     0.47366108
   0.47874642   0.48975679   0.4952016    0.5214952    0.55233876
   0.57718321   0.58447281   0.59681326   0.6222704    0.64650461
   0.66988922   0.69256913   0.70040077   0.75879813   0.80061849
   0.82269407   0.84167887   0.84878013   0.91219465   0.9246006
   0.95353213   1.07213587   1.17827703   1.20599704]
nelec by numeric integration = 146.00000328063715
    CPU time for vxc     38.22 sec, wall time     15.96 sec
E1 = -4111.06184374796  Ecoul = 1899.9713812354998  Exc = -124.89494363452764
cycle= 6 E= -834.982495934375  delta_E= -0.000827  |g|= 0.0186  |ddm|= 0.104
    CPU time for cycle= 6     38.82 sec, wall time     16.05 sec
  HOMO = -0.110613362349658  LUMO = -0.030524104937249
  mo_energy =
[-10.05019856 -10.04732605 -10.03789106 -10.03766316 -10.03599044
 -10.03226536 -10.02992081 -10.02788056 -10.02784423 -10.02741542
 -10.02649019 -10.02337327 -10.02294058 -10.02143261 -10.02049419
 -10.01908388 -10.017273   -10.01475341 -10.00859726 -10.00774681
 -10.00706517  -9.99764428  -0.87708322  -0.86216856  -0.85330335
  -0.7886289   -0.78188174  -0.77416636  -0.7427673   -0.72205171
  -0.69899597  -0.68407879  -0.6639147   -0.63681959  -0.61020114
  -0.60163771  -0.58420715  -0.58238981  -0.5536315   -0.54445156
  -0.52069618  -0.49836014  -0.49026296  -0.47179178  -0.45955993
  -0.44257159  -0.43563532  -0.42561711  -0.41833659  -0.40224498
  -0.39541862  -0.38892131  -0.37893829  -0.37225428  -0.3654729
  -0.36163989  -0.35369443  -0.3367076   -0.33144371  -0.31774492
  -0.29256203  -0.28817299  -0.27639     -0.26079641  -0.24883687
  -0.24443484  -0.23026     -0.22840754  -0.21942279  -0.20389718
  -0.17975411  -0.154686    -0.11061336  -0.0305241    0.02429946
   0.04833745   0.07219885   0.09164965   0.12016863   0.1394575
   0.16291448   0.17657301   0.1869333    0.25415334   0.25634659
   0.27712592   0.29040818   0.29411362   0.30218472   0.31912685
   0.32159417   0.33797832   0.35087662   0.36908468   0.38717208
   0.39471483   0.41612138   0.43294173   0.45518707   0.4744623
   0.47942898   0.49066758   0.49575547   0.52262148   0.55302184
   0.5780314    0.58475845   0.59663506   0.62226737   0.64724642
   0.67050117   0.69304396   0.70127548   0.7581946    0.80143231
   0.82389347   0.84182718   0.84948253   0.91263198   0.92512676
   0.95454329   1.07261506   1.17811872   1.20699952]
nelec by numeric integration = 146.00000327994033
    CPU time for vxc     38.22 sec, wall time     15.77 sec
E1 = -4111.027898327296  Ecoul = 1899.9356878963063  Exc = -124.89331796933946
cycle= 7 E= -834.982618187717  delta_E= -0.000122  |g|= 0.005  |ddm|= 0.0329
    CPU time for cycle= 7     38.62 sec, wall time     15.83 sec
  HOMO = -0.110442466335919  LUMO = -0.0302437824851307
  mo_energy =
[-10.05020942 -10.04778243 -10.03868623 -10.03808052 -10.03571601
 -10.03115629 -10.02996039 -10.02781582 -10.02755169 -10.02707928
 -10.02574231 -10.02310689 -10.02261954 -10.02194693 -10.02127473
 -10.0184879  -10.01685166 -10.01379861 -10.00808634 -10.00696002
 -10.00674971  -9.99746808  -0.87684488  -0.86226279  -0.85355536
  -0.78862785  -0.78150372  -0.77390618  -0.74247438  -0.72201058
  -0.69883276  -0.6837914   -0.66383305  -0.63662576  -0.61002186
  -0.60156075  -0.58408374  -0.58229022  -0.55348969  -0.54439313
  -0.520523    -0.49820694  -0.49017897  -0.47159681  -0.45964847
  -0.44239164  -0.43551528  -0.42548426  -0.41817962  -0.40205682
  -0.39537381  -0.38871829  -0.37889073  -0.37203374  -0.36558355
  -0.36170115  -0.35382338  -0.33652353  -0.33130971  -0.31757666
  -0.2923185   -0.28787121  -0.27622123  -0.26061581  -0.24871688
  -0.2441638   -0.23032173  -0.22848326  -0.21920179  -0.20387808
  -0.17958199  -0.15439881  -0.11044247  -0.03024378   0.02460366
   0.04848258   0.07222277   0.09186054   0.12022514   0.13965339
   0.16269377   0.17665288   0.18709384   0.2544426    0.25631673
   0.27699557   0.29032911   0.29414095   0.30230777   0.31927531
   0.32175755   0.33804024   0.3509087    0.3694103    0.38757337
   0.3948185    0.4163689    0.43316698   0.45545091   0.4744468
   0.47961478   0.49073053   0.49599096   0.52270683   0.55325714
   0.57810739   0.58501845   0.59682104   0.62261992   0.64743684
   0.67050816   0.69328429   0.70137334   0.75862456   0.80162662
   0.82363886   0.84224023   0.8496915    0.91285855   0.92526889
   0.95485569   1.07221038   1.17818194   1.20668672]
nelec by numeric integration = 146.00000328011086
    CPU time for vxc     38.42 sec, wall time     15.81 sec
E1 = -4111.0175809918155  Ecoul = 1899.9252766855493  Exc = -124.89323294576607
cycle= 8 E= -834.98262703942  delta_E= -8.85e-06  |g|= 0.000855  |ddm|= 0.00809
    CPU time for cycle= 8     38.93 sec, wall time     15.89 sec
  HOMO = -0.110469641272446  LUMO = -0.0302514841750273
  mo_energy =
[-10.05029764 -10.04754449 -10.03856226 -10.03806681 -10.03577901
 -10.03116912 -10.03004603 -10.02789681 -10.0275976  -10.02735689
 -10.02580822 -10.02323994 -10.0227201  -10.02189588 -10.02108533
 -10.01850192 -10.01671041 -10.01381786 -10.00807206 -10.0070595
 -10.00668477  -9.9976272   -0.87692233  -0.86225542  -0.85349434
  -0.78864671  -0.78155161  -0.77396086  -0.74249731  -0.72201052
  -0.69883898  -0.68383698  -0.66384174  -0.63664279  -0.61004761
  -0.60157376  -0.58409991  -0.58230448  -0.55352774  -0.54441285
  -0.52055578  -0.49823052  -0.49019657  -0.47159848  -0.45967338
  -0.44241796  -0.4355179   -0.42548496  -0.41818789  -0.40209834
  -0.39537446  -0.38875682  -0.37889354  -0.37205263  -0.3655605
  -0.36169185  -0.35380134  -0.33652495  -0.33131795  -0.31759085
  -0.29234322  -0.28791058  -0.27625867  -0.26064915  -0.24873693
  -0.24420693  -0.23029732  -0.22846065  -0.2192257   -0.20386296
  -0.17957744  -0.154443    -0.11046964  -0.03025148   0.02457359
   0.04848877   0.07224578   0.0918312    0.12020533   0.13961595
   0.16275756   0.1766672    0.18708593   0.25437393   0.25631648
   0.27703442   0.29034259   0.29415006   0.30234139   0.31926234
   0.32172869   0.33804635   0.35090564   0.36939268   0.38753983
   0.3948194    0.4163794    0.43313672   0.45541739   0.47442907
   0.47958419   0.49066384   0.49595598   0.52267903   0.55322475
   0.57808001   0.58496125   0.59678367   0.62255222   0.6473913
   0.67052412   0.69325926   0.70135277   0.75855648   0.80166186
   0.82368845   0.84218197   0.84967407   0.91281025   0.92524149
   0.95482523   1.07232822   1.17809217   1.20667774]
nelec by numeric integration = 146.00000328005788
    CPU time for vxc     38.58 sec, wall time     15.91 sec
E1 = -4111.020841721618  Ecoul = 1899.9285644401557  Exc = -124.89326019001203
cycle= 9 E= -834.982627258862  delta_E= -2.19e-07  |g|= 0.00045  |ddm|= 0.00185
    CPU time for cycle= 9     38.93 sec, wall time     15.97 sec
  HOMO = -0.110474910540057  LUMO = -0.030249021863433
  mo_energy =
[-10.05023673 -10.04757426 -10.03858413 -10.03807042 -10.03576678
 -10.0312315  -10.03005489 -10.02789302 -10.02759603 -10.02727123
 -10.02581718 -10.02321815 -10.02267601 -10.02193416 -10.02112813
 -10.01858715 -10.01678864 -10.01383354 -10.00807083 -10.00704807
 -10.00678771  -9.99755086  -0.87690474  -0.86227441  -0.85350593
  -0.78865901  -0.78154979  -0.77394542  -0.74251641  -0.72203249
  -0.69885801  -0.6838339   -0.66384588  -0.63665096  -0.61006057
  -0.60157615  -0.58410974  -0.58230734  -0.55352095  -0.54441675
  -0.52056421  -0.4982399   -0.49019268  -0.47160744  -0.45968477
  -0.44241329  -0.43553254  -0.4254964   -0.41818579  -0.40209445
  -0.39538426  -0.38875076  -0.37889385  -0.37205091  -0.36556143
  -0.36170329  -0.35380096  -0.33653777  -0.33132038  -0.31760572
  -0.29233999  -0.28791141  -0.27625906  -0.26064442  -0.2487293
  -0.24419427  -0.23030411  -0.22846681  -0.21923527  -0.20388593
  -0.17959725  -0.15444592  -0.11047491  -0.03024902   0.02457515
   0.04846792   0.07222446   0.09182516   0.12020771   0.13961732
   0.16276244   0.17667281   0.18708928   0.25439343   0.25630613
   0.27702514   0.2903337    0.29413101   0.3023254    0.31925963
   0.32173507   0.3380372    0.35091606   0.36939485   0.38752941
   0.39482615   0.41636928   0.43312582   0.45541688   0.47441557
   0.47959148   0.49068414   0.49595543   0.52268121   0.55321124
   0.57807264   0.58496722   0.5967828    0.62255749   0.6473828
   0.67050254   0.69325357   0.70135918   0.75856376   0.80163229
   0.82366873   0.84217496   0.84965672   0.91280009   0.92522392
   0.95478331   1.07231191   1.17812207   1.20667251]
nelec by numeric integration = 146.00000328007982
    CPU time for vxc     38.08 sec, wall time     15.83 sec
E1 = -4111.020142898937  Ecoul = 1899.9278903752272  Exc = -124.89328500787673
cycle= 10 E= -834.982627318974  delta_E= -6.01e-08  |g|= 0.000205  |ddm|= 0.000829
    CPU time for cycle= 10     38.45 sec, wall time     15.90 sec
  HOMO = -0.110484899349846  LUMO = -0.0302572406574411
  mo_energy =
[-10.05025824 -10.04761588 -10.03860046 -10.03806953 -10.03578467
 -10.03122871 -10.03003967 -10.02788187 -10.02760077 -10.02728428
 -10.02581735 -10.0232246  -10.02271209 -10.0219169  -10.02113973
 -10.01858575 -10.01680689 -10.01383168 -10.00809733 -10.00705301
 -10.00674078  -9.99758794  -0.87691491  -0.86227544  -0.85352092
  -0.78865781  -0.78155354  -0.77396065  -0.74252024  -0.72202829
  -0.69885912  -0.68383905  -0.66385404  -0.63665604  -0.61006186
  -0.60158367  -0.58411411  -0.58231106  -0.55353048  -0.54441861
  -0.52056548  -0.49824295  -0.49020253  -0.47161214  -0.45968176
  -0.44242027  -0.43553464  -0.42549999  -0.41819396  -0.40209915
  -0.39538527  -0.38875782  -0.3788969   -0.37205633  -0.36557118
  -0.36170514  -0.35380972  -0.33653931  -0.33132597  -0.31760837
  -0.29234684  -0.28791453  -0.27626313  -0.26065393  -0.2487386
  -0.24420206  -0.23030427  -0.22846765  -0.2192417   -0.20388335
  -0.17959903  -0.15445135  -0.1104849   -0.03025724   0.02456767
   0.04846657   0.07222466   0.09182068   0.1201998    0.1396119
   0.16275477   0.17666865   0.18708514   0.25438116   0.25630287
   0.27701964   0.29033662   0.29413391   0.30232369   0.31925879
   0.32172552   0.33803442   0.35090656   0.3693863    0.38752726
   0.39481333   0.41636033   0.43312726   0.45541011   0.47441744
   0.47957914   0.49067414   0.49594926   0.52267272   0.55321006
   0.57807121   0.5849608    0.59677965   0.62254996   0.64738317
   0.67050054   0.69325098   0.70134649   0.75855923   0.80162583
   0.8236643    0.84217124   0.84965298   0.91279921   0.92522589
   0.95478533   1.07229039   1.17810975   1.20667591]
nelec by numeric integration = 146.00000328007928
    CPU time for vxc     38.86 sec, wall time     16.05 sec
E1 = -4111.021193812848  Ecoul = 1899.9289504082706  Exc = -124.89329414072287
cycle= 11 E= -834.982627332688  delta_E= -1.37e-08  |g|= 6.5e-05  |ddm|= 0.000334
    CPU time for cycle= 11     39.18 sec, wall time     16.11 sec
  HOMO = -0.110483618111356  LUMO = -0.0302537965850168
  mo_energy =
[-10.05026611 -10.04761074 -10.0385941  -10.03806506 -10.03577366
 -10.03122167 -10.03004049 -10.0278761  -10.02760521 -10.02728793
 -10.02581328 -10.02322549 -10.02270824 -10.02192172 -10.02113651
 -10.01858019 -10.01679422 -10.01382471 -10.00809317 -10.0070483
 -10.00675248  -9.99757609  -0.87691512  -0.86227226  -0.85351793
  -0.78865526  -0.78155091  -0.77395719  -0.74251654  -0.72202869
  -0.69885699  -0.68383637  -0.6638524   -0.63665306  -0.61005994
  -0.60158246  -0.58411202  -0.58230906  -0.55352742  -0.54441622
  -0.52056235  -0.498241    -0.49020044  -0.47160975  -0.45967924
  -0.44242036  -0.43553317  -0.42549746  -0.41819171  -0.40209716
  -0.39538383  -0.38875656  -0.3788957   -0.37205379  -0.36556885
  -0.36170257  -0.35380798  -0.33653642  -0.33132459  -0.31760567
  -0.29234469  -0.2879122   -0.27626079  -0.2606509   -0.24873689
  -0.24420171  -0.23030417  -0.22846784  -0.21923857  -0.20388322
  -0.17959658  -0.15444898  -0.11048362  -0.0302538    0.02457027
   0.0484687    0.07222577   0.09182325   0.12020315   0.13961426
   0.16275348   0.17666905   0.18708642   0.25438154   0.25630548
   0.27702073   0.2903355    0.29413231   0.30232718   0.31926043
   0.32172661   0.33803745   0.35090832   0.36938757   0.38753105
   0.39481483   0.41636245   0.43313186   0.45541304   0.47442087
   0.47958224   0.4906793    0.49595227   0.52267648   0.55321278
   0.57807363   0.58496268   0.59678131   0.62255104   0.64738447
   0.67050472   0.69325452   0.70135086   0.75856126   0.80162936
   0.82366599   0.84217354   0.84965514   0.91279947   0.92522566
   0.95478837   1.07229388   1.1781071    1.20668023]
nelec by numeric integration = 146.0000032800821
    CPU time for vxc     38.44 sec, wall time     15.93 sec
E1 = -4111.020880756699  Ecoul = 1899.928632221439  Exc = -124.8932890115775
cycle= 12 E= -834.982627334225  delta_E= -1.54e-09  |g|= 2.39e-05  |ddm|= 0.000126
    CPU time for cycle= 12     38.99 sec, wall time     16.01 sec
  HOMO = -0.110482146006164  LUMO = -0.0302525361173123
  mo_energy =
[-10.05025762 -10.04760423 -10.03859119 -10.03806693 -10.03577751
 -10.03122449 -10.030042   -10.02787909 -10.02759989 -10.02728178
 -10.02581136 -10.02322109 -10.02269876 -10.02191878 -10.02113671
 -10.01858404 -10.01679275 -10.01382255 -10.00809431 -10.00704415
 -10.00674678  -9.9975787   -0.87691173  -0.86227226  -0.85351557
  -0.78865569  -0.7815489   -0.77395451  -0.74251626  -0.72202705
  -0.69885648  -0.68383461  -0.6638506   -0.63665207  -0.61005917
  -0.6015801   -0.58411096  -0.58230786  -0.55352645  -0.54441573
  -0.52056166  -0.4982402   -0.49019838  -0.47160875  -0.4596796
  -0.4424179   -0.43553167  -0.42549629  -0.41819067  -0.40209595
  -0.39538327  -0.38875483  -0.37889522  -0.37205308  -0.36556767
  -0.36170257  -0.35380684  -0.3365363   -0.33132378  -0.31760535
  -0.29234342  -0.28791093  -0.27625971  -0.26064923  -0.24873554
  -0.24420008  -0.23030413  -0.22846738  -0.21923787  -0.20388177
  -0.17959602  -0.1544476   -0.11048215  -0.03025254   0.02457167
   0.04846932   0.07222722   0.09182422   0.12020382   0.13961519
   0.16275409   0.17666944   0.18708745   0.25438458   0.25630585
   0.27702201   0.29033667   0.29413514   0.30232754   0.31926122
   0.32172883   0.3380375    0.35090863   0.36938815   0.38753162
   0.39481653   0.4163624    0.43313184   0.45541429   0.47442047
   0.47958434   0.49067896   0.49595303   0.52267705   0.55321319
   0.57807411   0.58496424   0.59678221   0.62255282   0.64738535
   0.67050465   0.69325561   0.70135249   0.75856361   0.80163094
   0.82366822   0.84217543   0.8496569    0.91280322   0.92522889
   0.95478681   1.07229717   1.17811177   1.20667843]
nelec by numeric integration = 146.00000328008528
    CPU time for vxc     38.74 sec, wall time     16.11 sec
E1 = -4111.020798888491  Ecoul = 1899.9285469251147  Exc = -124.89328558349516
cycle= 13 E= -834.982627334259  delta_E= -3.46e-11  |g|= 2.17e-05  |ddm|= 6.34e-05
    CPU time for cycle= 13     39.23 sec, wall time     16.19 sec
  HOMO = -0.11048284023382  LUMO = -0.0302530591821633
  mo_energy =
[-10.05025941 -10.04760733 -10.03859426 -10.03806734 -10.03577739
 -10.03122303 -10.03004093 -10.0278796  -10.02760075 -10.02728467
 -10.02581269 -10.02322258 -10.02270392 -10.02192044 -10.02113676
 -10.01858115 -10.0167945  -10.01382519 -10.00809234 -10.00704701
 -10.00674895  -9.99757803  -0.87691281  -0.8622726   -0.85351719
  -0.78865573  -0.78155003  -0.77395625  -0.74251642  -0.72202786
  -0.6988567   -0.6838357   -0.66385145  -0.63665273  -0.6100595
  -0.60158139  -0.58411146  -0.58230858  -0.55352717  -0.54441623
  -0.52056225  -0.49824056  -0.49019977  -0.47160925  -0.45967975
  -0.44241885  -0.43553257  -0.42549717  -0.41819122  -0.40209663
  -0.39538372  -0.38875554  -0.37889553  -0.37205361  -0.36556856
  -0.36170288  -0.35380763  -0.33653645  -0.33132408  -0.31760553
  -0.29234418  -0.28791171  -0.27626046  -0.26065043  -0.24873635
  -0.24420058  -0.23030425  -0.22846773  -0.21923838  -0.20388256
  -0.17959629  -0.15444851  -0.11048284  -0.03025306   0.02457094
   0.04846898   0.07222636   0.09182368   0.12020309   0.13961455
   0.1627539    0.17666924   0.18708693   0.25438326   0.25630538
   0.27702107   0.29033597   0.29413363   0.30232697   0.31926059
   0.32172789   0.33803711   0.3509083    0.36938825   0.38753116
   0.39481571   0.41636286   0.43313122   0.45541356   0.47442019
   0.47958295   0.49067863   0.49595257   0.52267639   0.553213
   0.57807373   0.58496347   0.59678189   0.62255233   0.64738508
   0.6705042    0.6932547    0.70135103   0.7585624    0.80163034
   0.82366656   0.84217459   0.84965624   0.91280106   0.92522704
   0.95478815   1.072295     1.17811065   1.2066781 ]
nelec by numeric integration = 146.00000328008318
    CPU time for vxc     39.15 sec, wall time     16.17 sec
E1 = -4111.020845217115  Ecoul = 1899.928595709957  Exc = -124.89328803988384
cycle= 14 E= -834.982627334429  delta_E= -1.7e-10  |g|= 6.17e-06  |ddm|= 4.62e-05
    CPU time for cycle= 14     39.60 sec, wall time     16.25 sec
  HOMO = -0.110483093644339  LUMO = -0.0302532282107669
  mo_energy =
[-10.05026042 -10.04760735 -10.03859444 -10.03806724 -10.03577671
 -10.0312232  -10.03004106 -10.02787953 -10.02760121 -10.0272839
 -10.02581281 -10.02322394 -10.02270345 -10.02192007 -10.02113658
 -10.01858195 -10.01679422 -10.01382504 -10.00809358 -10.00704695
 -10.0067489   -9.99757812  -0.8769133   -0.86227262  -0.85351724
  -0.78865583  -0.78155021  -0.77395609  -0.74251656  -0.72202791
  -0.69885688  -0.68383568  -0.66385159  -0.63665281  -0.61005969
  -0.6015814   -0.58411158  -0.58230871  -0.55352721  -0.54441639
  -0.52056238  -0.49824066  -0.49019964  -0.4716094   -0.45967985
  -0.44241905  -0.43553258  -0.42549715  -0.41819134  -0.40209674
  -0.39538376  -0.38875578  -0.3788956   -0.37205369  -0.36556857
  -0.36170286  -0.35380769  -0.33653658  -0.33132422  -0.31760562
  -0.29234422  -0.28791187  -0.27626048  -0.26065035  -0.24873632
  -0.24420082  -0.23030418  -0.22846767  -0.21923844  -0.20388256
  -0.17959638  -0.15444852  -0.11048309  -0.03025323   0.02457087
   0.0484689    0.07222639   0.09182363   0.12020319   0.13961459
   0.16275388   0.17666929   0.18708684   0.25438315   0.25630533
   0.27702109   0.29033598   0.2941337    0.30232705   0.31926058
   0.32172765   0.33803714   0.35090827   0.36938795   0.38753108
   0.39481565   0.41636249   0.43313119   0.4554135    0.4744201
   0.47958308   0.49067863   0.49595247   0.52267644   0.55321285
   0.57807368   0.58496337   0.59678151   0.62255195   0.64738486
   0.67050425   0.69325473   0.70135124   0.75856213   0.80163032
   0.82366669   0.84217437   0.8496561    0.91280123   0.92522716
   0.95478765   1.07229493   1.17810977   1.2066782 ]
nelec by numeric integration = 146.00000328008352
    CPU time for vxc     38.38 sec, wall time     16.00 sec
E1 = -4111.020862230472  Ecoul = 1899.928612998513  Exc = -124.89328831509795
cycle= 15 E= -834.982627334444  delta_E= -1.5e-11  |g|= 3.15e-06  |ddm|= 1.48e-05
    CPU time for cycle= 15     38.94 sec, wall time     16.09 sec
  HOMO = -0.110482886539784  LUMO = -0.0302529538984434
  mo_energy =
[-10.05025953 -10.04760754 -10.03859399 -10.038067   -10.03577769
 -10.03122319 -10.03004137 -10.02787913 -10.02760126 -10.02728494
 -10.02581217 -10.02322268 -10.02270432 -10.0219211  -10.02113703
 -10.01858262 -10.01679454 -10.01382345 -10.00809165 -10.0070464
 -10.00674906  -9.9975787   -0.87691283  -0.86227265  -0.85351732
  -0.78865577  -0.78154973  -0.77395644  -0.74251668  -0.72202806
  -0.69885676  -0.68383566  -0.66385158  -0.63665273  -0.61005961
  -0.60158151  -0.58411158  -0.58230844  -0.55352735  -0.54441609
  -0.52056218  -0.49824075  -0.49019997  -0.47160916  -0.45967977
  -0.44241886  -0.43553271  -0.42549725  -0.41819113  -0.40209665
  -0.39538379  -0.38875551  -0.37889547  -0.37205343  -0.36556868
  -0.36170291  -0.35380771  -0.33653636  -0.33132412  -0.31760571
  -0.29234412  -0.28791147  -0.27626048  -0.26065053  -0.24873648
  -0.24420048  -0.23030424  -0.22846782  -0.21923858  -0.20388276
  -0.17959638  -0.15444848  -0.11048289  -0.03025295   0.02457093
   0.04846887   0.07222625   0.09182352   0.12020293   0.13961441
   0.16275395   0.17666949   0.1870872    0.25438314   0.25630536
   0.27702096   0.29033583   0.29413343   0.30232727   0.31926067
   0.32172787   0.33803721   0.35090823   0.36938831   0.38753127
   0.39481563   0.4163628    0.43313152   0.45541353   0.47442028
   0.47958278   0.49067832   0.49595253   0.52267616   0.55321292
   0.57807366   0.58496344   0.59678205   0.62255225   0.64738499
   0.67050426   0.69325488   0.70135086   0.7585627    0.80163017
   0.82366638   0.84217458   0.84965612   0.91280084   0.92522684
   0.95478743   1.07229495   1.17811059   1.20667839]
nelec by numeric integration = 146.00000328008375
    CPU time for vxc     38.37 sec, wall time     15.91 sec
E1 = -4111.020847563785  Ecoul = 1899.9285982492083  Exc = -124.89328823245404
Extra cycle  E= -834.982627334418  delta_E= 2.59e-11  |g|= 9.08e-06  |ddm|= 2e-05
    CPU time for scf_cycle    676.49 sec, wall time    278.01 sec
    CPU time for SCF    676.49 sec, wall time    278.01 sec
converged SCF energy = -834.982627334418
nelec by numeric integration = 146.00000328008375
    CPU time for vxc     38.27 sec, wall time     15.84 sec
 ** Mulliken pop  **
pop of  0 C 1s            1.99077
pop of  0 C 2s            1.12629
pop of  0 C 2px           0.98003
pop of  0 C 2py           0.93326
pop of  0 C 2pz           0.93688
pop of  1 C 1s            1.99116
pop of  1 C 2s            1.05037
pop of  1 C 2px           1.03205
pop of  1 C 2py           0.97262
pop of  1 C 2pz           0.97455
pop of  2 C 1s            1.99150
pop of  2 C 2s            1.23935
pop of  2 C 2px           0.91028
pop of  2 C 2py           0.93217
pop of  2 C 2pz           0.97907
pop of  3 C 1s            1.99136
pop of  3 C 2s            1.09137
pop of  3 C 2px           1.09116
pop of  3 C 2py           0.94909
pop of  3 C 2pz           1.04104
pop of  4 C 1s            1.99111
pop of  4 C 2s            1.04845
pop of  4 C 2px           1.05090
pop of  4 C 2py           1.01336
pop of  4 C 2pz           1.00838
pop of  5 C 1s            1.99184
pop of  5 C 2s            1.26800
pop of  5 C 2px           0.91730
pop of  5 C 2py           0.88972
pop of  5 C 2pz           0.93207
pop of  6 C 1s            1.99167
pop of  6 C 2s            1.19079
pop of  6 C 2px           0.95137
pop of  6 C 2py           0.94207
pop of  6 C 2pz           0.91396
pop of  7 C 1s            1.99184
pop of  7 C 2s            1.16062
pop of  7 C 2px           1.03298
pop of  7 C 2py           1.00025
pop of  7 C 2pz           0.98546
pop of  8 C 1s            1.99103
pop of  8 C 2s            1.17809
pop of  8 C 2px           0.95154
pop of  8 C 2py           0.91841
pop of  8 C 2pz           0.92023
pop of  9 C 1s            1.99121
pop of  9 C 2s            1.00789
pop of  9 C 2px           1.03013
pop of  9 C 2py           1.02713
pop of  9 C 2pz           0.97944
pop of  10 C 1s           1.99096
pop of  10 C 2s           1.15445
pop of  10 C 2px          0.97658
pop of  10 C 2py          0.96713
pop of  10 C 2pz          0.98140
pop of  11 C 1s           1.99103
pop of  11 C 2s           1.01727
pop of  11 C 2px          1.04543
pop of  11 C 2py          1.03523
pop of  11 C 2pz          1.06299
pop of  12 C 1s           1.99070
pop of  12 C 2s           1.11996
pop of  12 C 2px          0.99223
pop of  12 C 2py          0.96423
pop of  12 C 2pz          0.94496
pop of  13 C 1s           1.99081
pop of  13 C 2s           1.15066
pop of  13 C 2px          0.96692
pop of  13 C 2py          0.92688
pop of  13 C 2pz          0.92319
pop of  14 C 1s           1.99129
pop of  14 C 2s           1.20036
pop of  14 C 2px          0.99689
pop of  14 C 2py          0.92042
pop of  14 C 2pz          0.97540
pop of  15 C 1s           1.99157
pop of  15 C 2s           1.14048
pop of  15 C 2px          1.02317
pop of  15 C 2py          0.94875
pop of  15 C 2pz          1.05338
pop of  16 C 1s           1.99160
pop of  16 C 2s           1.23465
pop of  16 C 2px          0.93651
pop of  16 C 2py          0.88474
pop of  16 C 2pz          0.91715
pop of  17 C 1s           1.99076
pop of  17 C 2s           1.15903
pop of  17 C 2px          0.96568
pop of  17 C 2py          0.92494
pop of  17 C 2pz          0.94731
pop of  18 C 1s           1.99195
pop of  18 C 2s           1.06226
pop of  18 C 2px          1.00400
pop of  18 C 2py          1.01653
pop of  18 C 2pz          1.05216
pop of  19 C 1s           1.99061
pop of  19 C 2s           1.07232
pop of  19 C 2px          0.99134
pop of  19 C 2py          1.00522
pop of  19 C 2pz          1.07260
pop of  20 C 1s           1.99230
pop of  20 C 2s           1.11396
pop of  20 C 2px          0.97663
pop of  20 C 2py          1.00452
pop of  20 C 2pz          0.96296
pop of  21 C 1s           1.99089
pop of  21 C 2s           1.10884
pop of  21 C 2px          0.99548
pop of  21 C 2py          1.05172
pop of  21 C 2pz          0.96293
pop of  22 H 1s           0.93456
pop of  23 H 1s           0.87161
pop of  24 H 1s           0.91692
pop of  25 H 1s           0.95890
pop of  26 H 1s           0.95231
pop of  27 H 1s           0.88028
pop of  28 H 1s           0.93144
pop of  29 H 1s           0.88590
pop of  30 H 1s           0.90559
pop of  31 H 1s           0.88067
pop of  32 H 1s           0.89087
pop of  33 H 1s           0.87589
pop of  34 H 1s           0.95490
pop of  35 H 1s           0.88224
 ** Mulliken atomic charges  **
charge of    0C =      0.03278
charge of    1C =     -0.02074
charge of    2C =     -0.05238
charge of    3C =     -0.16402
charge of    4C =     -0.11220
charge of    5C =      0.00108
charge of    6C =      0.01015
charge of    7C =     -0.17114
charge of    8C =      0.04072
charge of    9C =     -0.03579
charge of   10C =     -0.07054
charge of   11C =     -0.15195
charge of   12C =     -0.01209
charge of   13C =      0.04154
charge of   14C =     -0.08436
charge of   15C =     -0.15735
charge of   16C =      0.03535
charge of   17C =      0.01228
charge of   18C =     -0.12691
charge of   19C =     -0.13209
charge of   20C =     -0.05038
charge of   21C =     -0.10987
charge of   22H =      0.06544
charge of   23H =      0.12839
charge of   24H =      0.08308
charge of   25H =      0.04110
charge of   26H =      0.04769
charge of   27H =      0.11972
charge of   28H =      0.06856
charge of   29H =      0.11410
charge of   30H =      0.09441
charge of   31H =      0.11933
charge of   32H =      0.10913
charge of   33H =      0.12411
charge of   34H =      0.04510
charge of   35H =      0.11776
Dipole moment(X, Y, Z, Debye): -0.05905, -0.20686,  0.13633
nelec by numeric integration = 146.00000328008375
    CPU time for vxc     37.72 sec, wall time     15.85 sec
E1 = -4111.020847563785  Ecoul = 1899.928598249208  Exc = -124.89328823245404
nelec by numeric integration = 146.00000328008375
    CPU time for vxc     38.70 sec, wall time     16.13 sec
E1 = -4111.020847563785  Ecoul = 1899.9285982492083  Exc = -124.89328823245404
