System: uname_result(system='Linux', node='cosmopc18', release='5.15.0-97-generic', version='#107-Ubuntu SMP Wed Feb 7 13:26:48 UTC 2024', machine='x86_64')  Threads 4
Python 3.11.8 (main, Feb 26 2024, 21:39:34) [GCC 11.2.0]
numpy 1.26.4  scipy 1.11.4
Date: Tue Apr  9 10:20:05 2024
PySCF version 2.3.0
PySCF path  /home/saade/miniconda3/envs/tutorial/lib/python3.11/site-packages/pyscf

[ENV] PYSCFAD_BACKEND torch
[CONFIG] conf_file None
[INPUT] verbose = 5
[INPUT] max_memory = 4000 
[INPUT] num. atoms = 36
[INPUT] num. electrons = 146
[INPUT] charge = 0
[INPUT] spin (= nelec alpha-beta = 2S) = 0
[INPUT] symmetry False subgroup None
[INPUT] Mole.unit = angstrom
[INPUT] Symbol           X                Y                Z      unit          X                Y                Z       unit  Magmom
[INPUT]  1 C      0.246274000000   3.672415000000   0.481775000000 AA    0.465390411601   6.939858565745   0.910422803662 Bohr   0.0
[INPUT]  2 C     -0.057539000000   3.893824000000  -0.774123000000 AA   -0.108732951481   7.358260937258  -1.462880456727 Bohr   0.0
[INPUT]  3 C      0.135677000000   5.013929000000   1.237664000000 AA    0.256392371403   9.474952618014   2.338845994234 Bohr   0.0
[INPUT]  4 C     -0.059355000000   2.426076000000   1.547831000000 AA   -0.112164694124   4.584619197380   2.924976677112 Bohr   0.0
[INPUT]  5 C     -0.055412000000   4.910913000000  -1.255644000000 AA   -0.104713504014   9.280280591566  -2.372823269953 Bohr   0.0
[INPUT]  6 C     -0.017878000000   2.641339000000  -1.459433000000 AA   -0.033784523655   4.991407312133  -2.757928667152 Bohr   0.0
[INPUT]  7 C     -0.058201000000   6.001921000000  -0.610837000000 AA   -0.109983950176  11.341986911276  -1.154314636751 Bohr   0.0
[INPUT]  8 C     -0.103023000000   6.137778000000   0.449754000000 AA   -0.194685254531  11.598719433381   0.849911883428 Bohr   0.0
[INPUT]  9 C      0.199240000000   1.331723000000   0.614053000000 AA    0.376509033058   2.516591743784   1.160391995968 Bohr   0.0
[INPUT] 10 C     -0.044890000000   1.066226000000  -0.729969000000 AA   -0.084829805732   2.014875126891  -1.379441489423 Bohr   0.0
[INPUT] 11 C      0.072848000000   0.024992000000   1.210121000000 AA    0.137662768722   0.047228035305   2.286797267585 Bohr   0.0
[INPUT] 12 C      0.051450000000   0.004737000000  -1.207739000000 AA    0.097226409109   0.008951632652  -2.282295939956 Bohr   0.0
[INPUT] 13 C      0.037517000000  -1.327148000000   0.668525000000 AA    0.070896855015  -2.507946246764   1.263329157425 Bohr   0.0
[INPUT] 14 C     -0.209760000000  -1.323969000000  -0.745059000000 AA   -0.396388951889  -2.501938807414  -1.407957456642 Bohr   0.0
[INPUT] 15 C     -0.182769000000  -2.523587000000   1.551095000000 AA   -0.345383354061  -4.768888281513   2.931144743182 Bohr   0.0
[INPUT] 16 C      0.003903000000  -2.393189000000  -1.337569000000 AA    0.007375601064  -4.522471774322  -2.527639082708 Bohr   0.0
[INPUT] 17 C      0.000251000000  -3.748899000000   0.747153000000 AA    0.000474321257  -7.084392378656   1.411914543147 Bohr   0.0
[INPUT] 18 C     -0.111079000000  -3.656328000000  -0.822403000000 AA   -0.209908888191  -6.909458541579  -1.554116434021 Bohr   0.0
[INPUT] 19 C     -0.051606000000  -5.002530000000   1.283253000000 AA   -0.097521206384  -9.453411629920   2.424996718526 Bohr   0.0
[INPUT] 20 C      0.152006000000  -4.952456000000  -1.202638000000 AA    0.287249709291  -9.358785483959  -2.272656446995 Bohr   0.0
[INPUT] 21 C      0.150936000000  -6.221884000000   0.632124000000 AA    0.285227702337 -11.757656738813   1.194541236765 Bohr   0.0
[INPUT] 22 C     -0.034939000000  -6.052465000000  -0.720438000000 AA   -0.066025141066 -11.437501228516  -1.361430509729 Bohr   0.0
[INPUT] 23 H     -0.051218000000   5.061671000000   2.435496000000 AA   -0.096787992648   9.565171922653   4.602420417474 Bohr   0.0
[INPUT] 24 H      0.079678000000   2.491775000000   2.404489000000 AA    0.150569598153   4.708772314038   4.543825679529 Bohr   0.0
[INPUT] 25 H     -0.057868000000   4.881258000000  -2.550768000000 AA   -0.109354671376   9.224240763342  -4.820252927305 Bohr   0.0
[INPUT] 26 H     -0.068273000000   2.587356000000  -2.549863000000 AA   -0.129017271702   4.889394226750  -4.818542725162 Bohr   0.0
[INPUT] 27 H     -0.084118000000   6.944698000000  -1.219994000000 AA   -0.158959982146  13.123577237815  -2.305454533613 Bohr   0.0
[INPUT] 28 H     -0.046239000000   7.033181000000   1.294253000000 AA   -0.087379046274  13.290785874495   2.445783705897 Bohr   0.0
[INPUT] 29 H     -0.093997000000   0.061873000000   2.566772000000 AA   -0.177628586531   0.116923024505   4.850496104202 Bohr   0.0
[INPUT] 30 H     -0.044357000000   0.060499000000  -2.637450000000 AA   -0.083822581707   0.114326540810  -4.984058167234 Bohr   0.0
[INPUT] 31 H     -0.267544000000  -2.381323000000   2.387667000000 AA   -0.505584886271  -4.500048284128   4.512036706662 Bohr   0.0
[INPUT] 32 H     -0.054848000000  -2.618316000000  -2.567414000000 AA   -0.103647698480  -4.947900147567  -4.851709308374 Bohr   0.0
[INPUT] 33 H      0.041528000000  -4.895029000000   2.517486000000 AA    0.078476546501  -9.250264181804   4.757359062427 Bohr   0.0
[INPUT] 34 H      0.141646000000  -4.806688000000  -2.357663000000 AA    0.267672146640  -9.083323886233  -4.455337364020 Bohr   0.0
[INPUT] 35 H      0.010027000000  -7.115163000000   1.107224000000 AA    0.018948283851 -13.445709401639   2.092350118545 Bohr   0.0
[INPUT] 36 H     -0.014212000000  -7.055859000000  -1.196564000000 AA   -0.026856787682 -13.333641083548  -2.261178250514 Bohr   0.0
[INPUT] ---------------- BASIS SET ---------------- 
[INPUT] l, kappa, [nprim/nctr], expnt,             c_1 c_2 ...
[INPUT] H
[INPUT] 0    0    [3    /1   ]  3.42525091        0.15432897
                                0.62391373        0.53532814
                                0.1688554         0.44463454
[INPUT] C
[INPUT] 0    0    [3    /1   ]  71.616837         0.15432897
                                13.045096         0.53532814
                                3.5305122         0.44463454
[INPUT] 0    0    [3    /1   ]  2.9412494         -0.09996723
                                0.6834831         0.39951283
                                0.2222899         0.70011547
[INPUT] 1    0    [3    /1   ]  2.9412494         0.15591627
                                0.6834831         0.60768372
                                0.2222899         0.39195739

nuclear repulsion = 1510.72549182819
number of shells = 80
number of NR pGTOs = 372
number of NR cGTOs = 124
basis = sto3g
ecp = {}
CPU time:      5575.39
atom C rad-grids = 99, ang-grids = [ 50  50  50  50  50  50  50  50  50  50  50  50  50  50  50  50  50  50
  50  50  50  50  50  50  50  50  50  50  50  50  50  86  86  86  86  86
  86  86  86  86  86  86  86 434 434 434 434 434 434 434 434 434 590 590
 590 590 590 590 590 590 590 590 590 590 590 590 590 590 590 590 590 590
 590 590 590 590 590 590 590 434 434 434 434 434 434 434 434 434 434 434
 434 434 434 434 434 434 434 434 434]
atom H rad-grids = 99, ang-grids = [ 50  50  50  50  50  50  50  50  50  50  50  50  50  50  50  50  50  50
  50  50  50  50  50  50  50  50  50  50  86  86  86  86  86  86  86 434
 434 434 434 434 434 434 434 590 590 590 590 590 590 590 590 590 590 590
 590 590 590 590 590 590 590 590 590 590 590 590 590 590 590 434 434 434
 434 434 434 434 434 434 434 434 434 434 434 434 434 434 434 434 434 434
 434 434 434 434 434 434 434 434 434]
tot_boxes 5270, boxes in each direction [ 8 29 15]
Padding 0 grids
tot grids = 1157832


******** <class 'pyscf.dft.rks.RKS'> ********
method = RKS
initial guess = minao
damping factor = 0
level_shift factor = 0
DIIS = <class 'pyscf.scf.diis.CDIIS'>
diis_start_cycle = 1
diis_space = 8
SCF conv_tol = 1e-10
SCF conv_tol_grad = None
SCF max_cycles = 50
direct_scf = True
direct_scf_tol = 1e-13
chkfile to save SCF result = /home/saade/mlelec/tutorials/tmp80angy8x
max_memory 4000 MB (current use 635 MB)
XC library pyscf.dft.libxc version 6.1.0
    S. Lehtola, C. Steigemann, M. J.T. Oliveira, and M. A.L. Marques.,  SoftwareX 7, 1–5 (2018)
XC functionals = b3lypg
    P. J. Stephens, F. J. Devlin, C. F. Chabalowski, and M. J. Frisch.,  J. Phys. Chem. 98, 11623 (1994)
radial grids: 
    Treutler-Ahlrichs [JCP 102, 346 (1995); DOI:10.1063/1.469408] (M4) radial grids
    
becke partition: Becke, JCP 88, 2547 (1988); DOI:10.1063/1.454033
pruning grids: <function nwchem_prune at 0x7f9db5616ca0>
grids dens level: 3
symmetrized grids: False
atomic radii adjust function: <function treutler_atomic_radii_adjust at 0x7f9db5617380>
User specified grid scheme (99, 590)
small_rho_cutoff = 1e-07
Set gradient conv threshold to 1e-05
Initial guess from minao.
nelec by numeric integration = 145.27889215690962
    CPU time for vxc     37.76 sec, wall time     15.66 sec
E1 = -4120.625999876145  Ecoul = 1894.0858920154747  Exc = -126.35896999907472
init E= -842.173586031559
cond(S) = 39.37553337676169
    CPU time for initialize scf     47.16 sec, wall time     17.95 sec
  HOMO = -0.191352791535847  LUMO = -0.163252840268104
  mo_energy =
[-1.01875942e+01 -1.01733160e+01 -1.01587966e+01 -1.01584509e+01
 -1.01358850e+01 -1.01294394e+01 -1.01292104e+01 -1.01213023e+01
 -1.01197029e+01 -1.01180949e+01 -1.01128245e+01 -1.01025624e+01
 -1.01020745e+01 -1.00966325e+01 -1.00936520e+01 -1.00918634e+01
 -1.00875281e+01 -1.00871289e+01 -1.00863575e+01 -1.00805801e+01
 -1.00754951e+01 -1.00712816e+01 -1.17197969e+00 -1.10127479e+00
 -1.06807781e+00 -1.01812362e+00 -9.93893550e-01 -9.35531594e-01
 -9.17203539e-01 -8.82452886e-01 -8.74317416e-01 -8.48945465e-01
 -7.96844239e-01 -7.81982262e-01 -7.47198737e-01 -7.18856839e-01
 -7.13010516e-01 -6.75553015e-01 -6.60094020e-01 -6.34122737e-01
 -6.14982056e-01 -5.97534123e-01 -5.84945858e-01 -5.57795801e-01
 -5.49958990e-01 -5.41572175e-01 -5.25194164e-01 -5.24779231e-01
 -5.09411781e-01 -4.83725761e-01 -4.80908159e-01 -4.75524832e-01
 -4.60592501e-01 -4.46780963e-01 -4.40439119e-01 -4.24753879e-01
 -4.18573193e-01 -4.11294065e-01 -4.09806851e-01 -3.89855777e-01
 -3.77818308e-01 -3.73593297e-01 -3.69678003e-01 -3.51928783e-01
 -3.48515109e-01 -3.29134717e-01 -3.08210284e-01 -3.00954447e-01
 -2.87483155e-01 -2.81075624e-01 -2.73442027e-01 -2.50178128e-01
 -1.91352792e-01 -1.63252840e-01 -1.16112934e-01 -8.12198735e-02
 -5.85183647e-02 -2.24490516e-02  7.16612840e-03  9.90711288e-03
  1.58615966e-02  3.98909944e-02  8.25190928e-02  1.06360035e-01
  1.12417880e-01  1.27857177e-01  1.31448923e-01  1.58538400e-01
  1.60219017e-01  1.76365532e-01  1.77937679e-01  2.01342471e-01
  2.10454613e-01  2.24031295e-01  2.40905682e-01  2.54098894e-01
  2.74276499e-01  3.10635311e-01  3.18104431e-01  3.33254985e-01
  3.45107820e-01  3.46801207e-01  3.55888513e-01  3.62631540e-01
  4.02214726e-01  4.15417279e-01  4.42867034e-01  4.52353426e-01
  4.64357454e-01  4.93840441e-01  5.04270281e-01  5.65017417e-01
  5.69084483e-01  5.75184366e-01  6.15359343e-01  6.71609956e-01
  6.74994591e-01  7.18718446e-01  7.52500993e-01  8.11172662e-01
  8.16059787e-01  8.67186357e-01  8.87043556e-01  1.13025298e+00]
nelec by numeric integration = 146.0000016568066
    CPU time for vxc     38.11 sec, wall time     15.73 sec
E1 = -4134.729330353832  Ecoul = 1913.849303409373  Exc = -124.96901543101995
cycle= 1 E= -835.123550547292  delta_E= 7.05  |g|= 0.362  |ddm|= 9.42
    CPU time for cycle= 1     38.50 sec, wall time     15.79 sec
  HOMO = -0.103277408349583  LUMO = -0.0246376182587274
  mo_energy =
[-10.14977085 -10.02798652 -10.02583991 -10.02564074 -10.01185188
 -10.0042159  -10.00223078 -10.00111158  -9.99859821  -9.99696136
  -9.99228601  -9.98533629  -9.98032027  -9.97644428  -9.97144275
  -9.9608111   -9.95924218  -9.95577596  -9.95519243  -9.95135028
  -9.93637581  -9.90493369  -0.89153565  -0.8361568   -0.81904328
  -0.79533551  -0.77081383  -0.72265334  -0.71063436  -0.69674649
  -0.68302939  -0.66698965  -0.65820956  -0.60786799  -0.59569991
  -0.58926817  -0.56290851  -0.53455029  -0.52318613  -0.501075
  -0.48409327  -0.4770435   -0.47170696  -0.44165404  -0.43541147
  -0.41703107  -0.41098305  -0.40677621  -0.39385628  -0.38838008
  -0.37043288  -0.36489496  -0.35109496  -0.34904835  -0.33698947
  -0.32292353  -0.31981556  -0.3081631   -0.29470174  -0.28266978
  -0.27467394  -0.26972809  -0.26455251  -0.25326619  -0.23577124
  -0.2242613   -0.20586701  -0.19689736  -0.19358334  -0.17324112
  -0.16765637  -0.13760183  -0.10327741  -0.02463762   0.03795614
   0.06341947   0.09335881   0.13305054   0.14477206   0.16952924
   0.17733517   0.19834231   0.21191997   0.25493867   0.26551474
   0.27640147   0.28564083   0.30360688   0.30387461   0.30853604
   0.32920279   0.34853282   0.35272066   0.38306544   0.39560117
   0.40042449   0.41807487   0.44781126   0.46467947   0.47955913
   0.48767122   0.49214744   0.49974465   0.51809935   0.53423694
   0.54981066   0.595637     0.61633777   0.62246561   0.65143388
   0.67055353   0.71745142   0.72668786   0.73122487   0.78370416
   0.83331538   0.83866287   0.87728601   0.91660194   0.98580321
   1.01105559   1.05389985   1.06838788   1.33866251]
nelec by numeric integration = 146.00000174469673
    CPU time for vxc     38.16 sec, wall time     15.74 sec
E1 = -4129.276792583006  Ecoul = 1908.5417849237606  Exc = -124.82822987282384
cycle= 2 E= -834.837745703883  delta_E= 0.286  |g|= 0.883  |ddm|= 2.06
    CPU time for cycle= 2     38.56 sec, wall time     15.80 sec
  HOMO = -0.0845113648126924  LUMO = -0.0181141392473103
  mo_energy =
[-10.03293269 -10.03080887 -10.02968097 -10.02064002 -10.01888158
 -10.01771495 -10.01677401 -10.0166679  -10.0111598  -10.00810383
 -10.00765375 -10.00317736 -10.00165143  -9.99916329  -9.99853156
  -9.99498845  -9.99367266  -9.98895449  -9.9886444   -9.98568725
  -9.9705917   -9.93761506  -0.88488594  -0.85704339  -0.83461133
  -0.79622101  -0.77084472  -0.74757965  -0.73096079  -0.70810669
  -0.69900873  -0.67677121  -0.63991132  -0.62780183  -0.60385761
  -0.58458848  -0.57395374  -0.55157773  -0.52091688  -0.51190041
  -0.49260787  -0.4867032   -0.46939919  -0.45495917  -0.44778872
  -0.43134211  -0.42288087  -0.41365723  -0.39105106  -0.38498844
  -0.37122496  -0.36823836  -0.36381906  -0.35511492  -0.33822735
  -0.33609016  -0.33261389  -0.31385943  -0.29674185  -0.29079792
  -0.28562625  -0.28159381  -0.27123646  -0.25640705  -0.24644842
  -0.23418374  -0.21765458  -0.21124002  -0.19853519  -0.1848404
  -0.17579096  -0.14875971  -0.08451136  -0.01811414   0.02335164
   0.05250404   0.08246547   0.11806928   0.15061585   0.15947496
   0.16763278   0.20134762   0.22083271   0.23249434   0.25682689
   0.26411467   0.27022313   0.29217883   0.30336268   0.31250544
   0.32388477   0.3403582    0.34845445   0.37136802   0.38775963
   0.39898144   0.41590162   0.4505149    0.46387956   0.47087721
   0.47633854   0.49018828   0.49410011   0.50699644   0.53997675
   0.57314719   0.57759773   0.59495169   0.60356241   0.63169711
   0.66839013   0.70529046   0.71298847   0.73468589   0.76561091
   0.78130715   0.81048002   0.85298788   0.89171623   0.96511052
   1.00610772   1.05123585   1.07216549   1.32537757]
nelec by numeric integration = 146.00000166935914
    CPU time for vxc     38.28 sec, wall time     15.73 sec
E1 = -4129.965772173762  Ecoul = 1909.010547491174  Exc = -124.82993600865204
cycle= 3 E= -835.059668863053  delta_E= -0.222  |g|= 0.513  |ddm|= 2.34
    CPU time for cycle= 3     38.89 sec, wall time     15.82 sec
  HOMO = -0.0891725102936114  LUMO = -0.03853180782615
  mo_energy =
[-10.04546305 -10.04048531 -10.03966323 -10.03881247 -10.03651487
 -10.02837354 -10.02738432 -10.02699985 -10.02353357 -10.01861597
 -10.01657361 -10.01365243 -10.01284142 -10.01139163 -10.00946548
 -10.0071692  -10.00593229 -10.00336295 -10.00117097 -10.00087549
  -9.99208181  -9.97952773  -0.91830628  -0.86425645  -0.84073998
  -0.8108765   -0.79563379  -0.74428042  -0.73352201  -0.71165411
  -0.70275359  -0.68464743  -0.65106158  -0.63525822  -0.61437378
  -0.59186777  -0.58557428  -0.5525381   -0.53961611  -0.51667072
  -0.50278635  -0.49016304  -0.48453857  -0.45704299  -0.4489261
  -0.44304509  -0.42897274  -0.41692052  -0.41417726  -0.39472315
  -0.38791048  -0.37504942  -0.3717353   -0.35826727  -0.34474066
  -0.3368682   -0.33222641  -0.32551939  -0.30967486  -0.29580119
  -0.29144316  -0.28758477  -0.28146392  -0.26801858  -0.25603273
  -0.23908435  -0.22242817  -0.21262116  -0.20520935  -0.19022356
  -0.18119018  -0.15353781  -0.08917251  -0.03853181   0.01833171
   0.05058926   0.07777593   0.11671007   0.14416866   0.14743633
   0.15450786   0.18042759   0.204174     0.23715767   0.25101464
   0.25975092   0.26565072   0.29327401   0.29697353   0.3054644
   0.30690215   0.3376681    0.34319915   0.36649829   0.38317182
   0.39603717   0.41658181   0.44439497   0.45604628   0.46786919
   0.47509302   0.47785412   0.4891022    0.49349879   0.53981755
   0.54485293   0.57586002   0.58932961   0.60105853   0.63696189
   0.64696835   0.70650869   0.70779371   0.71209876   0.75483441
   0.79482452   0.81068685   0.85257551   0.88880777   0.95563886
   0.96801514   1.01862732   1.03498528   1.288293  ]
nelec by numeric integration = 146.00000169680519
    CPU time for vxc     38.51 sec, wall time     15.92 sec
E1 = -4131.444692147924  Ecoul = 1910.3858042122934  Exc = -124.84030398359175
cycle= 4 E= -835.173700091035  delta_E= -0.114  |g|= 0.087  |ddm|=  1.1
    CPU time for cycle= 4     39.05 sec, wall time     16.01 sec
  HOMO = -0.0963291692782128  LUMO = -0.0437672178230829
  mo_energy =
[-10.04915375 -10.04316656 -10.03688866 -10.03567134 -10.03406989
 -10.0285653  -10.02645374 -10.02458356 -10.02358154 -10.02248807
 -10.02232665 -10.0221156  -10.02159567 -10.02037347 -10.01949087
 -10.01910969 -10.01567767 -10.01443782 -10.01104176 -10.01020566
 -10.00786699 -10.00193448  -0.92075303  -0.86388126  -0.84438523
  -0.81378239  -0.79686814  -0.75041802  -0.73673935  -0.71455586
  -0.70709131  -0.68965802  -0.65514005  -0.63937755  -0.61710419
  -0.59697105  -0.58840707  -0.55601877  -0.54156753  -0.5190233
  -0.50415909  -0.49224981  -0.48699116  -0.46006791  -0.45551342
  -0.4461385   -0.43125322  -0.41957562  -0.41637652  -0.39691389
  -0.39107785  -0.37680598  -0.3735982   -0.36376177  -0.34805616
  -0.34075105  -0.33627441  -0.32847666  -0.31253057  -0.29729134
  -0.29299102  -0.29054908  -0.28363825  -0.27044515  -0.26087947
  -0.24351773  -0.22805372  -0.21689706  -0.20877152  -0.19367312
  -0.18707067  -0.15969984  -0.09632917  -0.04376722   0.01298149
   0.04530309   0.06988154   0.113633     0.14286198   0.14508901
   0.15085194   0.17698808   0.20655393   0.23602279   0.24877368
   0.25712653   0.26386919   0.29064614   0.29357427   0.30499631
   0.30552188   0.33316029   0.33950162   0.36193095   0.37647025
   0.38975803   0.41243577   0.43730546   0.45588284   0.46290527
   0.47275858   0.4739854    0.48298737   0.48907161   0.53814294
   0.5413899    0.57240163   0.58838144   0.59742691   0.63049387
   0.63811768   0.70113586   0.70322975   0.70920804   0.75445515
   0.79163503   0.80522696   0.84859566   0.88560581   0.95136044
   0.96744988   1.02099602   1.03777553   1.28616514]
nelec by numeric integration = 146.00000169860587
    CPU time for vxc     37.89 sec, wall time     15.75 sec
E1 = -4131.568490247956  Ecoul = 1910.5158619686404  Exc = -124.84830182490296
cycle= 5 E= -835.175438276032  delta_E= -0.00174  |g|= 0.0526  |ddm|= 0.205
    CPU time for cycle= 5     38.26 sec, wall time     15.82 sec
  HOMO = -0.0970350184298256  LUMO = -0.0417658910535426
  mo_energy =
[-10.0473787  -10.04240003 -10.0383886  -10.03694737 -10.03164635
 -10.02771147 -10.02672897 -10.02648931 -10.02543569 -10.02482178
 -10.02078783 -10.02023039 -10.01847321 -10.01808454 -10.0169182
 -10.01658282 -10.01275226 -10.01252685 -10.01078472 -10.00676433
 -10.0046561  -10.00189844  -0.91711637  -0.8661161   -0.84418109
  -0.81232694  -0.79707197  -0.74882913  -0.73701889  -0.71524299
  -0.7061011   -0.68803348  -0.65315411  -0.63902885  -0.61707421
  -0.59431946  -0.58891725  -0.55534177  -0.53975852  -0.5198605
  -0.50402757  -0.49146312  -0.48558712  -0.46009772  -0.45303764
  -0.44659231  -0.43231653  -0.41904682  -0.41465819  -0.39586825
  -0.39068691  -0.37770384  -0.37423924  -0.36142667  -0.34796881
  -0.34001479  -0.33533995  -0.32762174  -0.3111811   -0.29775366
  -0.2936636   -0.29036536  -0.28459748  -0.26918322  -0.26044959
  -0.24310527  -0.22702105  -0.21681293  -0.20883996  -0.19451641
  -0.18610221  -0.15854266  -0.09703502  -0.04176589   0.01394183
   0.04545873   0.07201315   0.11283119   0.14277871   0.14494031
   0.15018511   0.17832049   0.20750993   0.23464579   0.24847036
   0.25805416   0.26274929   0.29087648   0.29438002   0.30387912
   0.30562974   0.33497923   0.34002596   0.3635052    0.37829934
   0.39087541   0.4122844    0.43989495   0.45403123   0.46440392
   0.47302053   0.47613607   0.48611332   0.48941242   0.53819249
   0.54396289   0.57227348   0.58660267   0.59700832   0.63132526
   0.64234484   0.70232231   0.70369187   0.70890031   0.75230203
   0.79043869   0.80590958   0.84888565   0.88468581   0.95203646
   0.97049309   1.0211833    1.0369339    1.29056505]
nelec by numeric integration = 146.00000169091896
    CPU time for vxc     37.72 sec, wall time     15.64 sec
E1 = -4131.609668902434  Ecoul = 1910.5527223409038  Exc = -124.84488332465338
cycle= 6 E= -835.176338057997  delta_E= -0.0009  |g|= 0.0183  |ddm|= 0.098
    CPU time for cycle= 6     38.13 sec, wall time     15.70 sec
  HOMO = -0.096168644813736  LUMO = -0.0407300460955844
  mo_energy =
[-10.04657718 -10.04024501 -10.03812148 -10.03713642 -10.02846975
 -10.02784234 -10.02665051 -10.02573397 -10.02455868 -10.02259293
 -10.02068155 -10.0196673  -10.01855542 -10.01824839 -10.01804135
 -10.01450836 -10.01211934 -10.01070523 -10.00789267 -10.00707744
 -10.00391689 -10.00014321  -0.91726219  -0.86493099  -0.84352044
  -0.81167923  -0.79633528  -0.74900493  -0.73580307  -0.7143677
  -0.70561379  -0.68756652  -0.6525197   -0.63829586  -0.61649672
  -0.59369866  -0.58804054  -0.55523353  -0.539772    -0.51893601
  -0.50363321  -0.49125364  -0.48560117  -0.45954558  -0.45227648
  -0.4452916   -0.43126954  -0.41872879  -0.41459487  -0.39537576
  -0.39010002  -0.37682533  -0.37375857  -0.36108518  -0.34732721
  -0.33988246  -0.33543824  -0.32714012  -0.31077477  -0.29724925
  -0.29294959  -0.28986325  -0.28378536  -0.26875852  -0.26019912
  -0.24245656  -0.22610535  -0.21610891  -0.20821506  -0.19367599
  -0.18531364  -0.1579983   -0.09616864  -0.04073005   0.01443255
   0.04644904   0.07305362   0.11370079   0.1433386    0.14555967
   0.15092437   0.17886038   0.20732786   0.23539293   0.24906261
   0.25876036   0.26340619   0.29111544   0.29499185   0.30456556
   0.30602421   0.33556785   0.34054571   0.36377508   0.37859022
   0.39145706   0.41365518   0.44068774   0.45524622   0.46458211
   0.47343542   0.47633934   0.48628392   0.48972958   0.53843268
   0.54441307   0.57278976   0.58775736   0.59774482   0.63230219
   0.64272453   0.70245594   0.70454404   0.71000583   0.7537019
   0.79229407   0.80639173   0.84913216   0.88542512   0.95276209
   0.97021961   1.02143198   1.03737072   1.28987802]
nelec by numeric integration = 146.00000169234062
    CPU time for vxc     37.73 sec, wall time     15.64 sec
E1 = -4131.5310991664355  Ecoul = 1910.4728562041262  Exc = -124.84366816652101
cycle= 7 E= -835.176419300644  delta_E= -8.12e-05  |g|= 0.0104  |ddm|= 0.0311
    CPU time for cycle= 7     38.22 sec, wall time     15.71 sec
  HOMO = -0.096081229651107  LUMO = -0.0405811668542577
  mo_energy =
[-10.04663902 -10.0398607  -10.03855116 -10.03709205 -10.02871614
 -10.0283487  -10.02671934 -10.02575529 -10.02386914 -10.02228164
 -10.01965212 -10.01926145 -10.0187305  -10.01842331 -10.01737323
 -10.01406442 -10.01259295 -10.01047459 -10.0073514  -10.00731709
 -10.00500788  -9.99993035  -0.91754532  -0.86476411  -0.84344407
  -0.81175236  -0.79634488  -0.74855825  -0.73587172  -0.71419572
  -0.70555763  -0.68758474  -0.65249947  -0.63819794  -0.61634245
  -0.59390817  -0.58798021  -0.55494081  -0.53981835  -0.5188288
  -0.50356843  -0.49122431  -0.48563352  -0.45939     -0.45247248
  -0.44539388  -0.4311306   -0.41852523  -0.41471238  -0.39536625
  -0.39004405  -0.37669235  -0.37362151  -0.3612197   -0.34729606
  -0.33962262  -0.33525696  -0.32717146  -0.31085848  -0.29714455
  -0.2928934   -0.28986607  -0.28369959  -0.26884799  -0.25988225
  -0.24242227  -0.22622912  -0.21603041  -0.20808742  -0.19342536
  -0.18533472  -0.15793172  -0.09608123  -0.04058117   0.01465676
   0.04650256   0.07284996   0.11387969   0.1435734    0.14559914
   0.15114225   0.17879308   0.20718913   0.23548492   0.2491486
   0.2585967    0.26352133   0.29127596   0.29493405   0.30467806
   0.30607574   0.33550659   0.34040641   0.36389412   0.37879392
   0.3916445    0.41359193   0.44063084   0.45529011   0.46484101
   0.47354444   0.47623197   0.48613119   0.49006843   0.53854768
   0.54437919   0.57302945   0.58791994   0.59789995   0.63242174
   0.64246805   0.70282149   0.70460709   0.71000952   0.75379336
   0.792114     0.80664336   0.84952959   0.88572836   0.95267743
   0.96996011   1.0213401    1.03730276   1.28953834]
nelec by numeric integration = 146.00000169307697
    CPU time for vxc     37.84 sec, wall time     15.70 sec
E1 = -4131.52624887265  Ecoul = 1910.4680847737607  Exc = -124.84376399712065
cycle= 8 E= -835.176436267823  delta_E= -1.7e-05  |g|= 0.00778  |ddm|= 0.00956
    CPU time for cycle= 8     38.26 sec, wall time     15.77 sec
  HOMO = -0.0961462361130137  LUMO = -0.0406185817150642
  mo_energy =
[-10.04666237 -10.03992361 -10.03853972 -10.03700713 -10.02876524
 -10.02832878 -10.02678821 -10.02578572 -10.02422468 -10.02233062
 -10.01960469 -10.0195931  -10.01855305 -10.01845114 -10.01745384
 -10.01388839 -10.01259846 -10.01024562 -10.00767121 -10.00738535
 -10.00483735 -10.0005034   -0.91755889  -0.86481797  -0.84344055
  -0.81176679  -0.79636369  -0.74868322  -0.73594352  -0.71423701
  -0.70560557  -0.68763948  -0.65245347  -0.6383377   -0.61638104
  -0.59391737  -0.58803501  -0.55501308  -0.53981636  -0.51890044
  -0.5035756   -0.49122514  -0.48561667  -0.45944892  -0.45248878
  -0.44549391  -0.43118165  -0.41857634  -0.41472478  -0.39536985
  -0.39004129  -0.37673408  -0.37363237  -0.36121604  -0.34728901
  -0.33965389  -0.33528433  -0.32717971  -0.31086233  -0.2971475
  -0.29291673  -0.28994534  -0.28374917  -0.2688382   -0.25996843
  -0.24244553  -0.22628274  -0.21606103  -0.20809065  -0.19349923
  -0.1853529   -0.15798409  -0.09614624  -0.04061858   0.01459948
   0.04647264   0.07280027   0.11377356   0.14361117   0.14565428
   0.15109471   0.17879556   0.20719662   0.23542104   0.24914152
   0.25854557   0.26347975   0.29123604   0.29490117   0.30466704
   0.30613746   0.33548108   0.3404081    0.36379926   0.37871921
   0.39150634   0.41349178   0.44065784   0.45531235   0.46482027
   0.47354303   0.4762119    0.4861679    0.48994628   0.53855325
   0.544415     0.57297414   0.58783794   0.59786799   0.63225895
   0.64247412   0.70277404   0.70457797   0.70999038   0.75372789
   0.79191307   0.80656944   0.84942961   0.88563447   0.95269672
   0.96994042   1.02138047   1.03736473   1.2895345 ]
nelec by numeric integration = 146.0000016925633
    CPU time for vxc     38.93 sec, wall time     15.98 sec
E1 = -4131.533017822383  Ecoul = 1910.4749524569086  Exc = -124.84387982449854
cycle= 9 E= -835.176453361786  delta_E= -1.71e-05  |g|= 0.0043  |ddm|= 0.00716
    CPU time for cycle= 9     39.37 sec, wall time     16.06 sec
  HOMO = -0.0961137578329231  LUMO = -0.040544454435635
  mo_energy =
[-10.04644064 -10.04012607 -10.03850122 -10.03700056 -10.02883503
 -10.02829685 -10.02661128 -10.02578433 -10.02425408 -10.02252553
 -10.01976654 -10.01976257 -10.01860416 -10.01836085 -10.0176571
 -10.01351451 -10.01258083 -10.01059148 -10.00791877 -10.00756221
 -10.00483889 -10.00026066  -0.91744607  -0.86488001  -0.84353995
  -0.81172623  -0.79636789  -0.74877093  -0.73597343  -0.71431793
  -0.70563165  -0.68765105  -0.65234795  -0.63836678  -0.61644437
  -0.59382587  -0.58809465  -0.55507235  -0.53978051  -0.51891984
  -0.50362383  -0.49125364  -0.48563085  -0.45950193  -0.45245989
  -0.445492    -0.43122049  -0.41862319  -0.41465488  -0.39533585
  -0.39004712  -0.3767908   -0.37371521  -0.36119936  -0.34734865
  -0.33970643  -0.33535406  -0.32716921  -0.31082567  -0.29718447
  -0.29290843  -0.28994888  -0.28373977  -0.2687636   -0.2600378
  -0.24247269  -0.22626857  -0.21611813  -0.20812344  -0.19352967
  -0.18538902  -0.15801958  -0.09611376  -0.04054445   0.01453287
   0.04640333   0.07282097   0.11374893   0.14358041   0.14567451
   0.15102765   0.17883468   0.20727656   0.23540178   0.24910079
   0.25857311   0.2634694    0.29118012   0.29490907   0.30459699
   0.30617731   0.33548592   0.34042561   0.36381691   0.37866535
   0.39148074   0.4134723    0.44071765   0.45526779   0.46478125
   0.47345998   0.47623676   0.48624667   0.48987838   0.5384416
   0.54456775   0.5728597    0.58779665   0.59776126   0.63225707
   0.64257215   0.7026387    0.70456029   0.70998968   0.75371935
   0.79182575   0.80646107   0.84932338   0.88552417   0.95260812
   0.97005522   1.02144028   1.03739214   1.28961529]
nelec by numeric integration = 146.00000169236267
    CPU time for vxc     38.19 sec, wall time     15.76 sec
E1 = -4131.531108800865  Ecoul = 1910.4730953123249  Exc = -124.84393798803606
cycle= 10 E= -835.176459648389  delta_E= -6.29e-06  |g|= 0.00159  |ddm|= 0.00532
    CPU time for cycle= 10     38.57 sec, wall time     15.82 sec
  HOMO = -0.0961036957061252  LUMO = -0.0405242845697051
  mo_energy =
[-10.04637476 -10.04006835 -10.03845605 -10.03699289 -10.02881687
 -10.02825225 -10.02656485 -10.02584778 -10.02428446 -10.02246667
 -10.01971133 -10.01968513 -10.01855325 -10.01838034 -10.01755892
 -10.01331257 -10.0125898  -10.01047341 -10.00793487 -10.00748168
 -10.00485237 -10.00063118  -0.91741198  -0.86488307  -0.8435061
  -0.81169189  -0.79634681  -0.74875641  -0.73597353  -0.71429761
  -0.70562912  -0.68764592  -0.65229506  -0.63839694  -0.61641588
  -0.59380526  -0.58809048  -0.55505519  -0.53974626  -0.51893827
  -0.50359703  -0.49123134  -0.48559768  -0.45950429  -0.45245707
  -0.44549678  -0.43121522  -0.41860218  -0.41462663  -0.39530728
  -0.39001618  -0.37678435  -0.37369013  -0.36118477  -0.34732883
  -0.33968241  -0.33533438  -0.32715475  -0.31079729  -0.2971635
  -0.29295046  -0.28996709  -0.28377     -0.26874257  -0.2600299
  -0.24247082  -0.22628053  -0.21609866  -0.20810897  -0.19353898
  -0.18536981  -0.15800706  -0.0961037   -0.04052428   0.01455725
   0.04642239   0.07282265   0.1137114    0.14360159   0.14569652
   0.15103704   0.17886444   0.20729333   0.23535699   0.24910258
   0.25857866   0.26342304   0.29119544   0.29491285   0.30461182
   0.30620271   0.33548112   0.34043273   0.36381832   0.37869892
   0.39145984   0.41345372   0.4407394    0.45528559   0.46481583
   0.47349665   0.47624649   0.48627384   0.48988465   0.53848878
   0.54461533   0.57289438   0.58778008   0.59778493   0.63219228
   0.64258898   0.7026836    0.70460263   0.71002426   0.75369358
   0.79180305   0.80648988   0.84934995   0.88554905   0.95264194
   0.97009016   1.02147403   1.03742167   1.28965297]
nelec by numeric integration = 146.00000169226496
    CPU time for vxc     37.99 sec, wall time     15.68 sec
E1 = -4131.530296164086  Ecoul = 1910.4722387495237  Exc = -124.84389502300291
cycle= 11 E= -835.176460609379  delta_E= -9.61e-07  |g|= 0.000422  |ddm|= 0.0036
    CPU time for cycle= 11     38.45 sec, wall time     15.75 sec
  HOMO = -0.0961062084327174  LUMO = -0.0405230246713039
  mo_energy =
[-10.04640569 -10.04003303 -10.03846513 -10.03694538 -10.02880457
 -10.02826632 -10.02659012 -10.02580231 -10.02428645 -10.02244133
 -10.01969048 -10.0196592  -10.01850781 -10.01841438 -10.01755825
 -10.01333418 -10.01258491 -10.01040028 -10.0080033  -10.00746165
 -10.00487037 -10.0005336   -0.9174322   -0.86485475  -0.8434829
  -0.8116954   -0.796337    -0.74874237  -0.73597606  -0.71427811
  -0.70561684  -0.68764391  -0.65230272  -0.63838924  -0.616403
  -0.59382552  -0.58807623  -0.55504272  -0.53975089  -0.51891939
  -0.50358555  -0.49122488  -0.48559498  -0.45948708  -0.45246271
  -0.44551033  -0.43119681  -0.41859296  -0.41463749  -0.3953079
  -0.39000789  -0.37676604  -0.37367405  -0.36119153  -0.34731145
  -0.33967041  -0.33532377  -0.32715632  -0.31080149  -0.29715273
  -0.29292987  -0.28995983  -0.28375583  -0.26875089  -0.26001405
  -0.24246526  -0.22628209  -0.21609238  -0.20809871  -0.19351788
  -0.18536287  -0.15800186  -0.09610621  -0.04052302   0.0145692
   0.0464339    0.0728087    0.11373816   0.14361959   0.14570613
   0.15105693   0.17886027   0.20727783   0.2353755    0.24912138
   0.25856477   0.26344587   0.29120495   0.29490576   0.30462964
   0.30620847   0.33548379   0.34042857   0.36382177   0.37869872
   0.39146962   0.41345301   0.44073076   0.45530097   0.46482651
   0.4735106    0.47624463   0.48626121   0.48989768   0.53850719
   0.54460263   0.57291401   0.58780652   0.59780936   0.63221747
   0.6425773    0.70270388   0.70460507   0.71002686   0.75372321
   0.79177307   0.80650792   0.84936722   0.88556947   0.95265961
   0.97007004   1.02147733   1.03743424   1.2896361 ]
nelec by numeric integration = 146.00000169225686
    CPU time for vxc     37.96 sec, wall time     15.77 sec
E1 = -4131.529468705984  Ecoul = 1910.471393428037  Exc = -124.84387719721245
cycle= 12 E= -835.176460646973  delta_E= -3.76e-08  |g|= 0.000281  |ddm|= 0.000543
    CPU time for cycle= 12     38.46 sec, wall time     15.85 sec
  HOMO = -0.0961080870839232  LUMO = -0.0405274774516806
  mo_energy =
[-10.04641433 -10.04005094 -10.03848011 -10.03696757 -10.02881161
 -10.02828159 -10.02659948 -10.02581079 -10.02428785 -10.0224486
 -10.01969368 -10.01967646 -10.01852246 -10.01840337 -10.01755893
 -10.01335169 -10.01258878 -10.01042732 -10.00797203 -10.00746603
 -10.00487023 -10.00054363  -0.91743938  -0.86486371  -0.84349203
  -0.8117032   -0.79634578  -0.74874482  -0.73597496  -0.71428531
  -0.70562196  -0.68764685  -0.6523115   -0.63838893  -0.61640946
  -0.59382722  -0.58808083  -0.55504689  -0.53975781  -0.5189242
  -0.50359286  -0.49122976  -0.48560175  -0.45949161  -0.4524654
  -0.44550606  -0.43120355  -0.41859711  -0.41464337  -0.39531417
  -0.39001593  -0.37677236  -0.3736798   -0.36119463  -0.34731838
  -0.33967439  -0.33532593  -0.32715907  -0.3108079   -0.29715745
  -0.29293205  -0.28996342  -0.28375788  -0.26875539  -0.26001723
  -0.24246616  -0.22628305  -0.21609429  -0.20810153  -0.19352357
  -0.18536761  -0.15800503  -0.09610809  -0.04052748   0.01456444
   0.04642865   0.07280979   0.11373287   0.14361443   0.14570015
   0.151052     0.17885368   0.20727524   0.23537532   0.2491155
   0.25856506   0.2634446    0.2912021    0.29490648   0.30462429
   0.30620222   0.33548174   0.34042682   0.36381713   0.37869588
   0.39146755   0.41345452   0.44072775   0.45529581   0.46482066
   0.47350423   0.47623953   0.48625661   0.48989389   0.5384983
   0.54459313   0.57290633   0.58779837   0.59780045   0.63221327
   0.64257077   0.70269786   0.70459892   0.71002057   0.75371433
   0.79178835   0.80650248   0.8493624    0.88556233   0.95265075
   0.97006259   1.02146689   1.037423     1.28962596]
nelec by numeric integration = 146.00000169228326
    CPU time for vxc     38.15 sec, wall time     15.80 sec
E1 = -4131.530213118628  Ecoul = 1910.4721588777704  Exc = -124.84389826133521
cycle= 13 E= -835.176460674006  delta_E= -2.7e-08  |g|= 8.87e-05  |ddm|= 0.000333
    CPU time for cycle= 13     38.65 sec, wall time     15.87 sec
  HOMO = -0.096108892248604  LUMO = -0.0405286545696336
  mo_energy =
[-10.04641666 -10.04004799 -10.03847854 -10.03697009 -10.0288124
 -10.02827885 -10.02660053 -10.02581384 -10.02427921 -10.02245026
 -10.01969379 -10.01967436 -10.01852452 -10.01840828 -10.01755858
 -10.01335717 -10.01259027 -10.01042749 -10.00797243 -10.00746955
 -10.00486838 -10.0005399   -0.91743981  -0.86486321  -0.84349252
  -0.81170361  -0.79634599  -0.74874426  -0.7359757   -0.71428504
  -0.70562192  -0.68764702  -0.6523133   -0.63838837  -0.61640947
  -0.59382824  -0.58808071  -0.55504647  -0.53975827  -0.51892399
  -0.50359278  -0.49122994  -0.48560187  -0.45949141  -0.45246572
  -0.44550691  -0.4312035   -0.41859696  -0.41464386  -0.39531471
  -0.3900163   -0.37677199  -0.3736797   -0.36119466  -0.34731885
  -0.3396747   -0.33532615  -0.32715964  -0.31080817  -0.29715782
  -0.29293198  -0.28996247  -0.28375758  -0.26875647  -0.260017
  -0.24246664  -0.22628346  -0.2160948   -0.2081021   -0.19352284
  -0.18536806  -0.15800532  -0.09610889  -0.04052865   0.01456424
   0.04642872   0.07280932   0.11373344   0.14361359   0.14569883
   0.15105163   0.17885329   0.20727465   0.23537627   0.24911524
   0.25856462   0.26344497   0.29120195   0.29490588   0.30462419
   0.30620093   0.33548189   0.34042646   0.36381742   0.37869586
   0.39146845   0.41345411   0.44072663   0.45529509   0.46481996
   0.47350413   0.47623963   0.48625579   0.4898951    0.53849852
   0.54459155   0.57290704   0.58779924   0.59780128   0.63221439
   0.64257062   0.70269728   0.70459802   0.71001939   0.75371378
   0.79178837   0.80650237   0.84936287   0.88556325   0.95265076
   0.97006209   1.02146569   1.03742164   1.28962667]
nelec by numeric integration = 146.0000016922911
    CPU time for vxc     38.12 sec, wall time     15.79 sec
E1 = -4131.530239667089  Ecoul = 1910.472185240416  Exc = -124.84389807776145
cycle= 14 E= -835.176460676247  delta_E= -2.24e-09  |g|= 4.28e-05  |ddm|= 8.04e-05
    CPU time for cycle= 14     38.59 sec, wall time     15.86 sec
  HOMO = -0.096108972332948  LUMO = -0.0405290191613138
  mo_energy =
[-10.0464171  -10.0400492  -10.03847819 -10.03696986 -10.02881308
 -10.02827852 -10.02660079 -10.02581186 -10.02428215 -10.02244953
 -10.01969174 -10.01967371 -10.01852511 -10.01840676 -10.01755799
 -10.01336122 -10.0125894  -10.01042745 -10.0079698  -10.00746748
 -10.00486818 -10.00053838  -0.91743981  -0.86486343  -0.843492
  -0.81170381  -0.79634605  -0.74874366  -0.73597499  -0.71428494
  -0.70562155  -0.6876465   -0.6523142   -0.63838766  -0.61640937
  -0.59382827  -0.58808032  -0.55504629  -0.53975835  -0.51892378
  -0.50359275  -0.49122978  -0.48560185  -0.45949104  -0.45246549
  -0.44550619  -0.43120355  -0.41859692  -0.41464399  -0.39531498
  -0.39001655  -0.37677205  -0.37367961  -0.36119465  -0.3473185
  -0.33967447  -0.33532551  -0.32715967  -0.31080835  -0.29715793
  -0.29293197  -0.28996222  -0.28375759  -0.2687567   -0.26001666
  -0.24246633  -0.22628298  -0.21609441  -0.20810212  -0.19352305
  -0.18536772  -0.15800492  -0.09610897  -0.04052902   0.01456456
   0.046429     0.07280981   0.11373379   0.14361311   0.14569828
   0.15105188   0.178853     0.20727435   0.23537645   0.24911554
   0.25856506   0.26344522   0.29120245   0.2949062    0.30462428
   0.30620026   0.33548195   0.34042657   0.3638177    0.37869629
   0.39146897   0.41345492   0.44072616   0.45529473   0.46482011
   0.47350433   0.47623974   0.48625537   0.48989522   0.53849882
   0.54459053   0.57290724   0.5877991    0.59780147   0.63221517
   0.64257041   0.70269821   0.70459817   0.71001952   0.7537141
   0.79178998   0.80650299   0.84936315   0.88556331   0.95265122
   0.97006214   1.02146536   1.03742131   1.28962677]
nelec by numeric integration = 146.0000016922901
    CPU time for vxc     37.89 sec, wall time     15.73 sec
E1 = -4131.530233145783  Ecoul = 1910.4721777469142  Exc = -124.84389710622187
cycle= 15 E= -835.176460676904  delta_E= -6.57e-10  |g|= 1.07e-05  |ddm|= 5.7e-05
    CPU time for cycle= 15     38.31 sec, wall time     15.80 sec
  HOMO = -0.0961087688168866  LUMO = -0.0405288617557937
  mo_energy =
[-10.04641742 -10.04004797 -10.03847899 -10.03696986 -10.02881139
 -10.02827954 -10.02660115 -10.02581176 -10.02428115 -10.02244852
 -10.01969254 -10.01967416 -10.01852455 -10.01840672 -10.01755799
 -10.01336086 -10.01258914 -10.01042699 -10.00796893 -10.00746763
 -10.00486906 -10.00053777  -0.91744027  -0.86486286  -0.84349181
  -0.81170382  -0.79634587  -0.74874358  -0.73597476  -0.7142846
  -0.70562145  -0.68764652  -0.65231424  -0.63838748  -0.61640913
  -0.59382846  -0.58808003  -0.55504614  -0.53975851  -0.51892347
  -0.50359261  -0.49122974  -0.48560195  -0.45949087  -0.45246555
  -0.44550603  -0.43120313  -0.41859673  -0.41464421  -0.39531496
  -0.39001642  -0.37677168  -0.37367934  -0.36119476  -0.34731835
  -0.3396744   -0.33532547  -0.32715962  -0.31080841  -0.29715769
  -0.29293177  -0.28996214  -0.28375735  -0.26875679  -0.26001646
  -0.24246622  -0.22628294  -0.21609419  -0.20810193  -0.19352272
  -0.1853676   -0.15800484  -0.09610877  -0.04052886   0.01456475
   0.04642923   0.07280978   0.1137341    0.14361334   0.1456984
   0.15105224   0.17885297   0.20727417   0.23537679   0.24911569
   0.25856504   0.26344546   0.29120255   0.29490623   0.30462463
   0.30620035   0.33548206   0.34042657   0.36381765   0.37869633
   0.3914691    0.41345511   0.44072614   0.45529532   0.46482014
   0.47350453   0.47623958   0.48625517   0.48989543   0.53849894
   0.54459038   0.57290754   0.58779958   0.59780174   0.63221534
   0.64257008   0.70269829   0.70459834   0.71001971   0.75371448
   0.79179033   0.8065033    0.84936349   0.88556382   0.95265139
   0.97006169   1.02146531   1.03742138   1.28962614]
nelec by numeric integration = 146.00000169229133
    CPU time for vxc     38.00 sec, wall time     15.67 sec
E1 = -4131.530210662541  Ecoul = 1910.4721551583675  Exc = -124.84389700092666
cycle= 16 E= -835.176460676914  delta_E= -1e-11  |g|= 9.07e-06  |ddm|= 1.13e-05
    CPU time for cycle= 16     38.55 sec, wall time     15.75 sec
  HOMO = -0.0961093870022807  LUMO = -0.0405297432464731
  mo_energy =
[-10.04642001 -10.04004828 -10.03847951 -10.03697111 -10.0288126
 -10.0282799  -10.0266034  -10.02581145 -10.02428    -10.02244848
 -10.01968894 -10.01967359 -10.01852612 -10.01840791 -10.0175568
 -10.01336818 -10.01258923 -10.01042678 -10.00796562 -10.00746644
 -10.00486786 -10.00053454  -0.91744148  -0.86486287  -0.84349161
  -0.81170477  -0.79634645  -0.74874244  -0.73597452  -0.71428441
  -0.70562121  -0.68764627  -0.65231616  -0.63838651  -0.61640903
  -0.59382938  -0.58807969  -0.55504566  -0.53975924  -0.51892325
  -0.50359271  -0.49122982  -0.48560225  -0.45949038  -0.45246577
  -0.44550584  -0.4312032   -0.41859656  -0.41464514  -0.39531573
  -0.39001702  -0.37677159  -0.37367915  -0.36119496  -0.34731833
  -0.33967415  -0.33532489  -0.32715999  -0.31080919  -0.2971579
  -0.29293165  -0.28996177  -0.28375727  -0.26875782  -0.26001577
  -0.24246607  -0.22628284  -0.216094    -0.20810203  -0.1935225
  -0.18536759  -0.15800454  -0.09610939  -0.04052974   0.01456511
   0.04642942   0.07280983   0.11373469   0.14361294   0.14569737
   0.15105249   0.1788521    0.20727325   0.23537734   0.24911576
   0.25856489   0.2634459    0.29120296   0.29490617   0.30462471
   0.30619918   0.33548206   0.3404263    0.36381779   0.37869673
   0.39147004   0.4134556    0.44072528   0.45529475   0.46482019
   0.47350467   0.47623944   0.48625412   0.48989627   0.53849927
   0.54458827   0.57290808   0.5877998    0.59780219   0.63221647
   0.64256923   0.70269918   0.70459784   0.71001901   0.75371441
   0.79179197   0.80650395   0.84936421   0.88556432   0.95265152
   0.97006046   1.02146379   1.03741997   1.28962521]
nelec by numeric integration = 146.00000169229426
    CPU time for vxc     38.14 sec, wall time     15.77 sec
E1 = -4131.530256148113  Ecoul = 1910.4722005329797  Exc = -124.8438968887795
Extra cycle  E= -835.176460675726  delta_E= 1.19e-09  |g|= 5.5e-05  |ddm|= 0.000117
    CPU time for scf_cycle    702.58 sec, wall time    286.97 sec
    CPU time for SCF    702.58 sec, wall time    286.97 sec
converged SCF energy = -835.176460675726
nelec by numeric integration = 146.00000169229426
    CPU time for vxc     38.27 sec, wall time     15.74 sec
 ** Mulliken pop  **
pop of  0 C 1s            1.99144
pop of  0 C 2s            1.19904
pop of  0 C 2px           0.93941
pop of  0 C 2py           0.92442
pop of  0 C 2pz           0.92288
pop of  1 C 1s            1.99064
pop of  1 C 2s            0.99251
pop of  1 C 2px           1.03285
pop of  1 C 2py           1.03081
pop of  1 C 2pz           1.02271
pop of  2 C 1s            1.99157
pop of  2 C 2s            1.23319
pop of  2 C 2px           0.90725
pop of  2 C 2py           0.94096
pop of  2 C 2pz           0.94160
pop of  3 C 1s            1.99161
pop of  3 C 2s            1.18227
pop of  3 C 2px           1.04618
pop of  3 C 2py           0.91643
pop of  3 C 2pz           0.98479
pop of  4 C 1s            1.99118
pop of  4 C 2s            1.02389
pop of  4 C 2px           1.02989
pop of  4 C 2py           1.01290
pop of  4 C 2pz           0.99554
pop of  5 C 1s            1.99188
pop of  5 C 2s            1.26033
pop of  5 C 2px           0.89796
pop of  5 C 2py           0.90348
pop of  5 C 2pz           0.94509
pop of  6 C 1s            1.99129
pop of  6 C 2s            0.98767
pop of  6 C 2px           1.01322
pop of  6 C 2py           1.04578
pop of  6 C 2pz           1.08058
pop of  7 C 1s            1.99170
pop of  7 C 2s            1.04188
pop of  7 C 2px           1.00954
pop of  7 C 2py           1.00626
pop of  7 C 2pz           1.04066
pop of  8 C 1s            1.99072
pop of  8 C 2s            1.15131
pop of  8 C 2px           0.97454
pop of  8 C 2py           0.93110
pop of  8 C 2pz           0.94853
pop of  9 C 1s            1.99129
pop of  9 C 2s            1.08746
pop of  9 C 2px           1.02029
pop of  9 C 2py           0.97523
pop of  9 C 2pz           0.95305
pop of  10 C 1s           1.99181
pop of  10 C 2s           1.23735
pop of  10 C 2px          0.93397
pop of  10 C 2py          0.92886
pop of  10 C 2pz          0.92511
pop of  11 C 1s           1.99161
pop of  11 C 2s           1.10312
pop of  11 C 2px          1.02272
pop of  11 C 2py          0.97012
pop of  11 C 2pz          0.95682
pop of  12 C 1s           1.99090
pop of  12 C 2s           1.16999
pop of  12 C 2px          0.97790
pop of  12 C 2py          0.92549
pop of  12 C 2pz          0.92100
pop of  13 C 1s           1.99043
pop of  13 C 2s           1.08794
pop of  13 C 2px          1.01127
pop of  13 C 2py          0.97071
pop of  13 C 2pz          0.96553
pop of  14 C 1s           1.99127
pop of  14 C 2s           1.14974
pop of  14 C 2px          0.99851
pop of  14 C 2py          0.95754
pop of  14 C 2pz          1.03496
pop of  15 C 1s           1.99103
pop of  15 C 2s           1.11056
pop of  15 C 2px          0.98390
pop of  15 C 2py          0.97383
pop of  15 C 2pz          0.98858
pop of  16 C 1s           1.99106
pop of  16 C 2s           1.17616
pop of  16 C 2px          0.95635
pop of  16 C 2py          0.92779
pop of  16 C 2pz          0.94142
pop of  17 C 1s           1.99090
pop of  17 C 2s           1.12986
pop of  17 C 2px          0.99083
pop of  17 C 2py          0.95283
pop of  17 C 2pz          0.91935
pop of  18 C 1s           1.99112
pop of  18 C 2s           1.17058
pop of  18 C 2px          0.97239
pop of  18 C 2py          0.95224
pop of  18 C 2pz          0.96360
pop of  19 C 1s           1.99090
pop of  19 C 2s           1.07729
pop of  19 C 2px          1.00999
pop of  19 C 2py          0.98549
pop of  19 C 2pz          1.01236
pop of  20 C 1s           1.99067
pop of  20 C 2s           1.14566
pop of  20 C 2px          0.99091
pop of  20 C 2py          0.99221
pop of  20 C 2pz          0.97184
pop of  21 C 1s           1.99070
pop of  21 C 2s           1.09048
pop of  21 C 2px          0.99634
pop of  21 C 2py          1.02255
pop of  21 C 2pz          0.99064
pop of  22 H 1s           0.94265
pop of  23 H 1s           0.88244
pop of  24 H 1s           0.93931
pop of  25 H 1s           0.92886
pop of  26 H 1s           0.90111
pop of  27 H 1s           0.91868
pop of  28 H 1s           0.98772
pop of  29 H 1s           0.97140
pop of  30 H 1s           0.87916
pop of  31 H 1s           0.94122
pop of  32 H 1s           0.95240
pop of  33 H 1s           0.93942
pop of  34 H 1s           0.90173
pop of  35 H 1s           0.90998
 ** Mulliken atomic charges  **
charge of    0C =      0.02281
charge of    1C =     -0.06951
charge of    2C =     -0.01457
charge of    3C =     -0.12129
charge of    4C =     -0.05341
charge of    5C =      0.00126
charge of    6C =     -0.11854
charge of    7C =     -0.09004
charge of    8C =      0.00380
charge of    9C =     -0.02732
charge of   10C =     -0.01710
charge of   11C =     -0.04439
charge of   12C =      0.01471
charge of   13C =     -0.02589
charge of   14C =     -0.13201
charge of   15C =     -0.04790
charge of   16C =      0.00721
charge of   17C =      0.01623
charge of   18C =     -0.04992
charge of   19C =     -0.07603
charge of   20C =     -0.09130
charge of   21C =     -0.09072
charge of   22H =      0.05735
charge of   23H =      0.11756
charge of   24H =      0.06069
charge of   25H =      0.07114
charge of   26H =      0.09889
charge of   27H =      0.08132
charge of   28H =      0.01228
charge of   29H =      0.02860
charge of   30H =      0.12084
charge of   31H =      0.05878
charge of   32H =      0.04760
charge of   33H =      0.06058
charge of   34H =      0.09827
charge of   35H =      0.09002
Dipole moment(X, Y, Z, Debye):  0.01448,  0.41899,  0.23715
nelec by numeric integration = 146.00000169229426
    CPU time for vxc     37.61 sec, wall time     15.65 sec
E1 = -4131.530256148113  Ecoul = 1910.4722005329793  Exc = -124.84389688877948
nelec by numeric integration = 146.00000169229426
    CPU time for vxc     37.67 sec, wall time     15.65 sec
E1 = -4131.530256148113  Ecoul = 1910.4722005329795  Exc = -124.8438968887795
