System: uname_result(system='Linux', node='cosmopc18', release='5.15.0-97-generic', version='#107-Ubuntu SMP Wed Feb 7 13:26:48 UTC 2024', machine='x86_64')  Threads 4
Python 3.11.8 (main, Feb 26 2024, 21:39:34) [GCC 11.2.0]
numpy 1.26.4  scipy 1.11.4
Date: Tue Apr  9 11:15:23 2024
PySCF version 2.3.0
PySCF path  /home/saade/miniconda3/envs/tutorial/lib/python3.11/site-packages/pyscf

[ENV] PYSCFAD_BACKEND torch
[CONFIG] conf_file None
[INPUT] verbose = 5
[INPUT] max_memory = 4000 
[INPUT] num. atoms = 36
[INPUT] num. electrons = 146
[INPUT] charge = 0
[INPUT] spin (= nelec alpha-beta = 2S) = 0
[INPUT] symmetry False subgroup None
[INPUT] Mole.unit = angstrom
[INPUT] Symbol           X                Y                Z      unit          X                Y                Z       unit  Magmom
[INPUT]  1 C      0.098052000000   3.745624000000   0.764768000000 AA    0.185291425966   7.078203525598   1.445202068831 Bohr   0.0
[INPUT]  2 C     -0.016455000000   3.515392000000  -0.612625000000 AA   -0.031095443380   6.643128100487  -1.157693467062 Bohr   0.0
[INPUT]  3 C     -0.184043000000   4.895834000000   1.288077000000 AA   -0.347790865143   9.251785411334   2.434112757351 Bohr   0.0
[INPUT]  4 C      0.041534000000   2.600318000000   1.537370000000 AA    0.078487884858   4.913888856777   2.905208252123 Bohr   0.0
[INPUT]  5 C     -0.028635000000   4.795812000000  -1.487336000000 AA   -0.054112307577   9.062771224903  -2.810657695206 Bohr   0.0
[INPUT]  6 C      0.046741000000   2.367599000000  -1.314203000000 AA    0.088327688788   4.474113682794  -2.483483742082 Bohr   0.0
[INPUT]  7 C     -0.026734000000   6.152872000000  -0.779671000000 AA   -0.050519938214  11.627242959505  -1.473364657266 Bohr   0.0
[INPUT]  8 C      0.086234000000   5.986386000000   0.849034000000 AA    0.162958642626  11.312630015931   1.604441730444 Bohr   0.0
[INPUT]  9 C      0.113346000000   1.289167000000   0.728195000000 AA    0.214192897315   2.436172558827   1.376089115278 Bohr   0.0
[INPUT] 10 C      0.090139000000   1.166806000000  -0.856819000000 AA    0.170338023142   2.204943780499  -1.619153248324 Bohr   0.0
[INPUT] 11 C      0.089549000000  -0.109805000000   1.318262000000 AA    0.169223084729  -0.207501377108   2.491154140421 Bohr   0.0
[INPUT] 12 C     -0.052223000000   0.163145000000  -1.414987000000 AA   -0.098687167403   0.308299368592  -2.673937899820 Bohr   0.0
[INPUT] 13 C      0.110657000000  -1.436631000000   0.883779000000 AA    0.209111423766  -2.714839132060   1.670100264642 Bohr   0.0
[INPUT] 14 C     -0.123370000000  -0.989092000000  -0.811225000000 AA   -0.233135511988  -1.869112991998  -1.532993075400 Bohr   0.0
[INPUT] 15 C     -0.004065000000  -2.482915000000   1.294002000000 AA   -0.007681736696  -4.692029340574   2.445309384639 Bohr   0.0
[INPUT] 16 C      0.074749000000  -2.410248000000  -1.332563000000 AA    0.141255138085  -4.554708612281  -2.518179113729 Bohr   0.0
[INPUT] 17 C     -0.001410000000  -3.391007000000   0.672876000000 AA   -0.002664513836  -6.408074516483   1.271551355793 Bohr   0.0
[INPUT] 18 C      0.018417000000  -3.763350000000  -0.948493000000 AA    0.034803086036  -7.111700810882  -1.792392001067 Bohr   0.0
[INPUT] 19 C      0.079979000000  -4.830690000000   1.351600000000 AA    0.151138405717  -9.128681092675   2.554153829962 Bohr   0.0
[INPUT] 20 C      0.047711000000  -4.960593000000  -1.455918000000 AA    0.090160723129  -9.374162185435  -2.751286279825 Bohr   0.0
[INPUT] 21 C      0.052980000000  -6.100520000000   0.890257000000 AA    0.100117690079 -11.528312017432   1.682341910477 Bohr   0.0
[INPUT] 22 C     -0.065449000000  -6.070541000000  -0.792050000000 AA   -0.123680685127 -11.471659917943  -1.496757576962 Bohr   0.0
[INPUT] 23 H     -0.029040000000   4.974419000000   2.451408000000 AA   -0.054877646657   9.400289538833   4.632489739568 Bohr   0.0
[INPUT] 24 H     -0.029279000000   2.507746000000   2.596801000000 AA   -0.055329291201   4.738953129974   4.907242689997 Bohr   0.0
[INPUT] 25 H      0.059151000000   4.899248000000  -2.608368000000 AA    0.111779189994   9.258236936323  -4.929101152080 Bohr   0.0
[INPUT] 26 H      0.104248000000   2.422655000000  -2.530941000000 AA    0.197000169034   4.578154444308  -4.782785327433 Bohr   0.0
[INPUT] 27 H      0.078002000000   7.187463000000  -1.369052000000 AA    0.147402417168  13.582336600445  -2.587133330288 Bohr   0.0
[INPUT] 28 H      0.164929000000   6.908579000000   1.192408000000 AA    0.311670639998  13.055322219922   2.253324548740 Bohr   0.0
[INPUT] 29 H      0.027494000000  -0.057875000000   2.605877000000 AA    0.051956130069  -0.109367899459   4.924393844303 Bohr   0.0
[INPUT] 30 H     -0.002312000000  -0.131861000000  -2.545617000000 AA   -0.004369046800  -0.249181176511  -4.810518948037 Bohr   0.0
[INPUT] 31 H      0.106125000000  -2.612292000000   2.516974000000 AA    0.200547184969  -4.936516437392   4.756391522651 Bohr   0.0
[INPUT] 32 H      0.073610000000  -2.442579000000  -2.359507000000 AA    0.139102740029  -4.615805347614  -4.458822018994 Bohr   0.0
[INPUT] 33 H     -0.110640000000  -4.892663000000   2.489849000000 AA   -0.209079298422  -9.245793089793   4.705132701522 Bohr   0.0
[INPUT] 34 H      0.274775000000  -5.040953000000  -2.474328000000 AA    0.519249495877  -9.526020576805  -4.675802262343 Bohr   0.0
[INPUT] 35 H     -0.032467000000  -7.005101000000   1.269747000000 AA   -0.061353738086 -13.237722364917   2.399474077488 Bohr   0.0
[INPUT] 36 H      0.082835000000  -7.202534000000  -1.227743000000 AA    0.156535463528 -13.610816662868  -2.320098021352 Bohr   0.0
[INPUT] ---------------- BASIS SET ---------------- 
[INPUT] l, kappa, [nprim/nctr], expnt,             c_1 c_2 ...
[INPUT] H
[INPUT] 0    0    [3    /1   ]  3.42525091        0.15432897
                                0.62391373        0.53532814
                                0.1688554         0.44463454
[INPUT] C
[INPUT] 0    0    [3    /1   ]  71.616837         0.15432897
                                13.045096         0.53532814
                                3.5305122         0.44463454
[INPUT] 0    0    [3    /1   ]  2.9412494         -0.09996723
                                0.6834831         0.39951283
                                0.2222899         0.70011547
[INPUT] 1    0    [3    /1   ]  2.9412494         0.15591627
                                0.6834831         0.60768372
                                0.2222899         0.39195739

nuclear repulsion = 1498.31664418255
number of shells = 80
number of NR pGTOs = 372
number of NR cGTOs = 124
basis = sto3g
ecp = {}
CPU time:     13697.22
atom C rad-grids = 99, ang-grids = [ 50  50  50  50  50  50  50  50  50  50  50  50  50  50  50  50  50  50
  50  50  50  50  50  50  50  50  50  50  50  50  50  86  86  86  86  86
  86  86  86  86  86  86  86 434 434 434 434 434 434 434 434 434 590 590
 590 590 590 590 590 590 590 590 590 590 590 590 590 590 590 590 590 590
 590 590 590 590 590 590 590 434 434 434 434 434 434 434 434 434 434 434
 434 434 434 434 434 434 434 434 434]
atom H rad-grids = 99, ang-grids = [ 50  50  50  50  50  50  50  50  50  50  50  50  50  50  50  50  50  50
  50  50  50  50  50  50  50  50  50  50  86  86  86  86  86  86  86 434
 434 434 434 434 434 434 434 590 590 590 590 590 590 590 590 590 590 590
 590 590 590 590 590 590 590 590 590 590 590 590 590 590 590 434 434 434
 434 434 434 434 434 434 434 434 434 434 434 434 434 434 434 434 434 434
 434 434 434 434 434 434 434 434 434]
tot_boxes 5440, boxes in each direction [ 8 30 15]
Padding 0 grids
tot grids = 1157832


******** <class 'pyscf.dft.rks.RKS'> ********
method = RKS
initial guess = minao
damping factor = 0
level_shift factor = 0
DIIS = <class 'pyscf.scf.diis.CDIIS'>
diis_start_cycle = 1
diis_space = 8
SCF conv_tol = 1e-10
SCF conv_tol_grad = None
SCF max_cycles = 50
direct_scf = True
direct_scf_tol = 1e-13
chkfile to save SCF result = /home/saade/mlelec/tutorials/tmpcfkq3g5z
max_memory 4000 MB (current use 637 MB)
XC library pyscf.dft.libxc version 6.1.0
    S. Lehtola, C. Steigemann, M. J.T. Oliveira, and M. A.L. Marques.,  SoftwareX 7, 1–5 (2018)
XC functionals = b3lypg
    P. J. Stephens, F. J. Devlin, C. F. Chabalowski, and M. J. Frisch.,  J. Phys. Chem. 98, 11623 (1994)
radial grids: 
    Treutler-Ahlrichs [JCP 102, 346 (1995); DOI:10.1063/1.469408] (M4) radial grids
    
becke partition: Becke, JCP 88, 2547 (1988); DOI:10.1063/1.454033
pruning grids: <function nwchem_prune at 0x7f9db5616ca0>
grids dens level: 3
symmetrized grids: False
atomic radii adjust function: <function treutler_atomic_radii_adjust at 0x7f9db5617380>
User specified grid scheme (99, 590)
small_rho_cutoff = 1e-07
Set gradient conv threshold to 1e-05
Initial guess from minao.
nelec by numeric integration = 145.27008756624838
    CPU time for vxc     37.21 sec, wall time     15.58 sec
E1 = -4096.235507633056  Ecoul = 1882.4513673002593  Exc = -126.07650503164419
init E= -841.544001181892
cond(S) = 33.85993252137587
    CPU time for initialize scf     46.90 sec, wall time     17.92 sec
  HOMO = -0.220593783259553  LUMO = -0.134097427555883
  mo_energy =
[-1.02197097e+01 -1.01624484e+01 -1.01583987e+01 -1.01460019e+01
 -1.01434003e+01 -1.01369195e+01 -1.01235582e+01 -1.01228381e+01
 -1.01170804e+01 -1.01127038e+01 -1.01015164e+01 -1.00981264e+01
 -1.00972860e+01 -1.00918707e+01 -1.00918479e+01 -1.00842385e+01
 -1.00819255e+01 -1.00792866e+01 -1.00748122e+01 -1.00726648e+01
 -1.00655651e+01 -1.00503289e+01 -1.13767968e+00 -1.10290755e+00
 -1.06253791e+00 -1.00706952e+00 -9.65168701e-01 -9.23140025e-01
 -9.06257332e-01 -8.90389995e-01 -8.65018063e-01 -8.36314527e-01
 -8.10212281e-01 -7.53539839e-01 -7.50488612e-01 -6.97991020e-01
 -6.79960535e-01 -6.61161460e-01 -6.53661691e-01 -6.41299643e-01
 -6.14042101e-01 -5.98836334e-01 -5.84803613e-01 -5.58639610e-01
 -5.45640278e-01 -5.34158804e-01 -5.17314254e-01 -5.12445850e-01
 -4.90822377e-01 -4.87496268e-01 -4.82624352e-01 -4.68415082e-01
 -4.63834148e-01 -4.58970083e-01 -4.47737819e-01 -4.42994072e-01
 -4.35440031e-01 -4.33333491e-01 -4.12303241e-01 -3.99435130e-01
 -3.82684902e-01 -3.56794718e-01 -3.51321546e-01 -3.39431370e-01
 -3.28745719e-01 -3.19748305e-01 -3.07237303e-01 -2.96751018e-01
 -2.80096028e-01 -2.69215388e-01 -2.54944577e-01 -2.41789344e-01
 -2.20593783e-01 -1.34097428e-01 -1.06998500e-01 -7.68812390e-02
 -4.23146237e-02 -2.20093379e-02 -9.15958124e-04  1.05166046e-02
  2.13695008e-02  8.21160786e-02  8.38126626e-02  9.25482592e-02
  1.05145654e-01  1.31814499e-01  1.38441327e-01  1.54163199e-01
  1.60450227e-01  1.63545273e-01  1.70051467e-01  1.93435229e-01
  2.04151422e-01  2.24301218e-01  2.29511458e-01  2.35502518e-01
  2.46180355e-01  2.62861785e-01  2.93788571e-01  2.96226298e-01
  3.14318568e-01  3.21002829e-01  3.60164255e-01  3.75895488e-01
  4.07610305e-01  4.15792269e-01  4.33302702e-01  4.44767129e-01
  4.59465700e-01  4.68779550e-01  4.79590620e-01  5.01582184e-01
  5.17700529e-01  5.68922758e-01  5.93718887e-01  6.22064026e-01
  6.81630989e-01  6.93195525e-01  7.03707346e-01  7.45956305e-01
  8.14875168e-01  8.99035098e-01  9.50686876e-01  1.00359138e+00]
nelec by numeric integration = 145.99999939452192
    CPU time for vxc     38.18 sec, wall time     15.75 sec
E1 = -4112.021915605652  Ecoul = 1903.091047968168  Exc = -124.74386633968649
cycle= 1 E= -835.358089794622  delta_E= 6.19  |g|= 0.354  |ddm|= 9.37
    CPU time for cycle= 1     38.52 sec, wall time     15.80 sec
  HOMO = -0.0979947753781392  LUMO = 0.019309006523854
  mo_energy =
[-10.05759491 -10.04679097 -10.03253412 -10.02785495 -10.00747221
 -10.00712465 -10.0047518  -10.00227457 -10.00209334  -9.99645825
  -9.98627674  -9.98167045  -9.97140684  -9.968148    -9.95840875
  -9.95318331  -9.94607825  -9.93394665  -9.93326588  -9.93130716
  -9.9221116   -9.91598186  -0.82686299  -0.82123358  -0.79589003
  -0.78426097  -0.73786714  -0.72009116  -0.7068161   -0.68825652
  -0.66567083  -0.65720661  -0.6310893   -0.60011713  -0.57834414
  -0.55872325  -0.53837251  -0.52988176  -0.51227787  -0.49199625
  -0.48838463  -0.46952666  -0.4557222   -0.43249315  -0.42897528
  -0.42232116  -0.4062566   -0.39077078  -0.37627297  -0.37352279
  -0.35889946  -0.34765991  -0.34502462  -0.33513176  -0.33431012
  -0.32792308  -0.31054288  -0.30730479  -0.29972295  -0.28974609
  -0.283334    -0.27290928  -0.24268351  -0.2275283   -0.22358334
  -0.21907504  -0.20084956  -0.19202775  -0.17448112  -0.14941236
  -0.13789952  -0.12734197  -0.09799478   0.01930901   0.04552913
   0.07915506   0.09901178   0.13463349   0.14692605   0.17971922
   0.18635856   0.23798135   0.2470786    0.25790902   0.26351023
   0.27530275   0.27671704   0.29015449   0.30634482   0.32139522
   0.34355743   0.34724222   0.36011286   0.36999115   0.3897196
   0.40243784   0.40391024   0.41128649   0.42161496   0.44192663
   0.45997737   0.4861463    0.49774628   0.52583336   0.56116824
   0.57093918   0.57381366   0.5789976    0.61534726   0.62271381
   0.63195036   0.67172537   0.69884821   0.72852253   0.74364201
   0.79994084   0.81201176   0.84067321   0.87661583   0.95810511
   0.9935307    1.12945283   1.20089956   1.24308818]
nelec by numeric integration = 145.99999909203916
    CPU time for vxc     38.30 sec, wall time     15.80 sec
E1 = -4104.174715707672  Ecoul = 1895.1103591221517  Exc = -124.5645883470111
cycle= 2 E= -835.312300749983  delta_E= 0.0458  |g|= 0.521  |ddm|= 1.28
    CPU time for cycle= 2     38.83 sec, wall time     15.89 sec
  HOMO = -0.118574350372597  LUMO = 0.00273920131020226
  mo_energy =
[-1.00477169e+01 -1.00385479e+01 -1.00349400e+01 -1.00329375e+01
 -1.00255554e+01 -1.00229071e+01 -1.00214003e+01 -1.00186511e+01
 -1.00165965e+01 -1.00153054e+01 -1.00102404e+01 -1.00083175e+01
 -1.00075256e+01 -9.99913074e+00 -9.99890163e+00 -9.99738362e+00
 -9.99508467e+00 -9.99374778e+00 -9.98919168e+00 -9.98478079e+00
 -9.97905982e+00 -9.96056710e+00 -8.84792386e-01 -8.56139208e-01
 -8.27468101e-01 -7.92980643e-01 -7.63678640e-01 -7.30951868e-01
 -7.19909745e-01 -7.09078008e-01 -6.92295552e-01 -6.70127969e-01
 -6.49167725e-01 -6.10014268e-01 -6.05145539e-01 -5.67213732e-01
 -5.52069458e-01 -5.38010515e-01 -5.28061531e-01 -5.18006748e-01
 -5.05079755e-01 -4.88151913e-01 -4.72405642e-01 -4.52730829e-01
 -4.44365842e-01 -4.35520850e-01 -4.16103282e-01 -3.97914317e-01
 -3.94063742e-01 -3.88921135e-01 -3.75899417e-01 -3.74966306e-01
 -3.69046416e-01 -3.63148614e-01 -3.53702856e-01 -3.45984703e-01
 -3.43638084e-01 -3.31325059e-01 -3.16945398e-01 -3.00513352e-01
 -2.95959446e-01 -2.69652655e-01 -2.54263771e-01 -2.51473155e-01
 -2.35366449e-01 -2.28303599e-01 -2.14652958e-01 -2.06741776e-01
 -1.85254582e-01 -1.73295382e-01 -1.68132056e-01 -1.41009444e-01
 -1.18574350e-01  2.73920131e-03  2.72812075e-02  6.20714460e-02
  9.52482570e-02  1.19591018e-01  1.41220699e-01  1.50663134e-01
  1.55549901e-01  2.24535668e-01  2.26858916e-01  2.36743318e-01
  2.53245424e-01  2.69000028e-01  2.73980505e-01  2.91421319e-01
  3.00774529e-01  3.10846577e-01  3.14171347e-01  3.40856227e-01
  3.44011032e-01  3.53796278e-01  3.59323115e-01  3.75096825e-01
  3.79110070e-01  4.04790354e-01  4.17082080e-01  4.32366571e-01
  4.53119723e-01  4.59936488e-01  4.93815201e-01  5.12821366e-01
  5.41128452e-01  5.50971866e-01  5.64107554e-01  5.71678975e-01
  6.04782586e-01  6.06616992e-01  6.14688897e-01  6.51173561e-01
  6.65201758e-01  7.18876701e-01  7.30018782e-01  7.66925570e-01
  8.24766223e-01  8.34037848e-01  8.55343461e-01  8.99035470e-01
  9.73821250e-01  1.06017376e+00  1.11676363e+00  1.16826822e+00]
nelec by numeric integration = 145.99999925421372
    CPU time for vxc     37.99 sec, wall time     15.73 sec
E1 = -4108.000354276465  Ecoul = 1898.8939239270758  Exc = -124.60978443093062
cycle= 3 E= -835.399570597772  delta_E= -0.0873  |g|= 0.156  |ddm|= 0.916
    CPU time for cycle= 3     38.56 sec, wall time     15.82 sec
  HOMO = -0.124762884454964  LUMO = -0.00375168998590022
  mo_energy =
[-1.00516221e+01 -1.00399531e+01 -1.00390657e+01 -1.00347955e+01
 -1.00310272e+01 -1.00297397e+01 -1.00296819e+01 -1.00276884e+01
 -1.00259806e+01 -1.00247649e+01 -1.00233551e+01 -1.00179053e+01
 -1.00147267e+01 -1.00142723e+01 -1.00116652e+01 -1.00112274e+01
 -1.00107371e+01 -1.00022903e+01 -1.00001425e+01 -9.99442359e+00
 -9.99224188e+00 -9.98401204e+00 -8.84261789e-01 -8.61198981e-01
 -8.38491749e-01 -8.02493014e-01 -7.69211001e-01 -7.37275903e-01
 -7.24553335e-01 -7.14783418e-01 -6.95324278e-01 -6.76379371e-01
 -6.54242970e-01 -6.16843393e-01 -6.10968950e-01 -5.74256548e-01
 -5.56824199e-01 -5.43465095e-01 -5.28763780e-01 -5.21918804e-01
 -5.10926309e-01 -4.92183862e-01 -4.77157714e-01 -4.58217134e-01
 -4.50645073e-01 -4.39950935e-01 -4.21342856e-01 -3.98590113e-01
 -3.97190911e-01 -3.94237084e-01 -3.84242863e-01 -3.78165248e-01
 -3.72786338e-01 -3.64529725e-01 -3.55227392e-01 -3.51290111e-01
 -3.45979308e-01 -3.40358753e-01 -3.26617402e-01 -3.08642099e-01
 -3.00748723e-01 -2.74984320e-01 -2.60465399e-01 -2.55529002e-01
 -2.42638948e-01 -2.37084409e-01 -2.20550712e-01 -2.11331855e-01
 -1.92501343e-01 -1.74563207e-01 -1.68262924e-01 -1.48328422e-01
 -1.24762884e-01 -3.75168999e-03  2.20663543e-02  5.66669165e-02
  8.59686569e-02  1.13886806e-01  1.31019540e-01  1.48226187e-01
  1.55663027e-01  2.20818909e-01  2.24351897e-01  2.33411610e-01
  2.46709394e-01  2.58918534e-01  2.69434750e-01  2.87323514e-01
  2.91725690e-01  3.03897733e-01  3.10286131e-01  3.36328472e-01
  3.40186243e-01  3.51242548e-01  3.59086375e-01  3.71257831e-01
  3.79802187e-01  3.93927133e-01  4.14281672e-01  4.29647911e-01
  4.44745840e-01  4.56666102e-01  4.86217406e-01  5.05690694e-01
  5.47860319e-01  5.48709204e-01  5.59202058e-01  5.66331378e-01
  5.98646070e-01  6.02890232e-01  6.10707064e-01  6.42791726e-01
  6.60513912e-01  7.08176658e-01  7.21696440e-01  7.65041841e-01
  8.10982563e-01  8.26441384e-01  8.40314076e-01  8.97650674e-01
  9.56316836e-01  1.05626193e+00  1.11539150e+00  1.16813908e+00]
nelec by numeric integration = 145.9999992769727
    CPU time for vxc     38.15 sec, wall time     15.73 sec
E1 = -4108.053251053565  Ecoul = 1898.957645468339  Exc = -124.62817329511661
cycle= 4 E= -835.407134697794  delta_E= -0.00756  |g|= 0.057  |ddm|= 0.283
    CPU time for cycle= 4     38.67 sec, wall time     15.81 sec
  HOMO = -0.125578578418499  LUMO = -0.00484790647464754
  mo_energy =
[-1.00477918e+01 -1.00371765e+01 -1.00356772e+01 -1.00353777e+01
 -1.00350057e+01 -1.00292156e+01 -1.00276068e+01 -1.00271276e+01
 -1.00255739e+01 -1.00230780e+01 -1.00218704e+01 -1.00208767e+01
 -1.00187800e+01 -1.00184103e+01 -1.00136104e+01 -1.00100213e+01
 -1.00097886e+01 -1.00050052e+01 -1.00035931e+01 -1.00029599e+01
 -9.99932009e+00 -9.98531318e+00 -8.83996960e-01 -8.60358648e-01
 -8.36467765e-01 -8.04422931e-01 -7.69024067e-01 -7.37465495e-01
 -7.26798416e-01 -7.15044896e-01 -6.97270042e-01 -6.77514340e-01
 -6.54628341e-01 -6.17505009e-01 -6.10694195e-01 -5.74898082e-01
 -5.56670055e-01 -5.43487924e-01 -5.30716481e-01 -5.22628779e-01
 -5.11057575e-01 -4.92712968e-01 -4.77153900e-01 -4.57516342e-01
 -4.50347753e-01 -4.41017825e-01 -4.21364144e-01 -3.99636596e-01
 -3.98144522e-01 -3.93600474e-01 -3.84695925e-01 -3.79046504e-01
 -3.72648292e-01 -3.65823331e-01 -3.56927424e-01 -3.51160290e-01
 -3.47319108e-01 -3.39262092e-01 -3.26933702e-01 -3.10676017e-01
 -3.01817861e-01 -2.76557930e-01 -2.60851694e-01 -2.56426027e-01
 -2.42263752e-01 -2.37363349e-01 -2.22232706e-01 -2.13156918e-01
 -1.93219429e-01 -1.77136617e-01 -1.70551491e-01 -1.49678917e-01
 -1.25578578e-01 -4.84790647e-03  2.11468836e-02  5.47849455e-02
  8.60862498e-02  1.12726275e-01  1.30287947e-01  1.46495991e-01
  1.54469595e-01  2.19233135e-01  2.22970416e-01  2.31337380e-01
  2.46574169e-01  2.62116754e-01  2.68270414e-01  2.85966174e-01
  2.91206068e-01  3.03157787e-01  3.10254581e-01  3.36030543e-01
  3.38648453e-01  3.51189557e-01  3.56909118e-01  3.71757887e-01
  3.76933755e-01  3.96038022e-01  4.13431843e-01  4.28852795e-01
  4.45379463e-01  4.56613071e-01  4.86115660e-01  5.05886965e-01
  5.41964913e-01  5.46996134e-01  5.58668848e-01  5.65486971e-01
  5.99004133e-01  6.01884719e-01  6.07846449e-01  6.44005207e-01
  6.60294988e-01  7.09347978e-01  7.19618399e-01  7.62472397e-01
  8.09273962e-01  8.23200273e-01  8.43856251e-01  8.97187788e-01
  9.60063020e-01  1.05731717e+00  1.11769410e+00  1.16838298e+00]
nelec by numeric integration = 145.99999926686243
    CPU time for vxc     38.22 sec, wall time     15.73 sec
E1 = -4108.21287690015  Ecoul = 1899.1159750253128  Exc = -124.62777965863009
cycle= 5 E= -835.408037350919  delta_E= -0.000903  |g|= 0.0246  |ddm|= 0.102
    CPU time for cycle= 5     38.79 sec, wall time     15.82 sec
  HOMO = -0.124827400572674  LUMO = -0.00361567998659074
  mo_energy =
[-1.00472951e+01 -1.00388973e+01 -1.00353232e+01 -1.00337399e+01
 -1.00329598e+01 -1.00285231e+01 -1.00267860e+01 -1.00255727e+01
 -1.00249738e+01 -1.00193019e+01 -1.00189670e+01 -1.00181391e+01
 -1.00169895e+01 -1.00157063e+01 -1.00129030e+01 -1.00093341e+01
 -1.00082565e+01 -1.00034976e+01 -1.00028240e+01 -1.00023548e+01
 -9.99358726e+00 -9.98967969e+00 -8.84322933e-01 -8.59017000e-01
 -8.35239275e-01 -8.02961907e-01 -7.67786866e-01 -7.36715356e-01
 -7.25684908e-01 -7.14475157e-01 -6.96046254e-01 -6.76261048e-01
 -6.54058730e-01 -6.16345271e-01 -6.10186856e-01 -5.73880291e-01
 -5.55767327e-01 -5.42851174e-01 -5.30231982e-01 -5.21802451e-01
 -5.10389023e-01 -4.91765666e-01 -4.76406872e-01 -4.56839799e-01
 -4.49614843e-01 -4.40111159e-01 -4.20859158e-01 -3.99245211e-01
 -3.97808778e-01 -3.92832793e-01 -3.83735701e-01 -3.78576995e-01
 -3.71944802e-01 -3.65360173e-01 -3.55932304e-01 -3.50683666e-01
 -3.46505722e-01 -3.38249160e-01 -3.25785149e-01 -3.09425586e-01
 -3.00989618e-01 -2.75763158e-01 -2.60117321e-01 -2.55387918e-01
 -2.42090515e-01 -2.36539818e-01 -2.21245630e-01 -2.12522373e-01
 -1.92710534e-01 -1.76114650e-01 -1.70163266e-01 -1.48844669e-01
 -1.24827401e-01 -3.61567999e-03  2.18778783e-02  5.61015722e-02
  8.65129854e-02  1.13780946e-01  1.31520306e-01  1.47302933e-01
  1.54729383e-01  2.20347829e-01  2.23864873e-01  2.32332039e-01
  2.47622016e-01  2.61852206e-01  2.69096312e-01  2.87218828e-01
  2.92156109e-01  3.04011683e-01  3.11116951e-01  3.36539063e-01
  3.39535664e-01  3.51504273e-01  3.58253061e-01  3.71882969e-01
  3.77451819e-01  3.96259999e-01  4.13442803e-01  4.30190366e-01
  4.46091232e-01  4.56589643e-01  4.86843852e-01  5.06834877e-01
  5.42977838e-01  5.48319727e-01  5.59486472e-01  5.66483309e-01
  6.00061277e-01  6.02162495e-01  6.09191280e-01  6.44787881e-01
  6.61279308e-01  7.10575386e-01  7.20719364e-01  7.64394894e-01
  8.11012129e-01  8.24911826e-01  8.44915475e-01  8.98761809e-01
  9.60856335e-01  1.05907842e+00  1.11687875e+00  1.16780591e+00]
nelec by numeric integration = 145.9999992652749
    CPU time for vxc     37.78 sec, wall time     15.68 sec
E1 = -4108.102674088146  Ecoul = 1899.0032676711076  Exc = -124.62544849834876
cycle= 6 E= -835.408210732839  delta_E= -0.000173  |g|= 0.00986  |ddm|= 0.04
    CPU time for cycle= 6     38.39 sec, wall time     15.77 sec
  HOMO = -0.124737260051871  LUMO = -0.00345924601933473
  mo_energy =
[-1.00463977e+01 -1.00373432e+01 -1.00360166e+01 -1.00349722e+01
 -1.00321945e+01 -1.00278718e+01 -1.00277100e+01 -1.00259811e+01
 -1.00246323e+01 -1.00193331e+01 -1.00186745e+01 -1.00183125e+01
 -1.00177682e+01 -1.00155693e+01 -1.00119520e+01 -1.00101420e+01
 -1.00087048e+01 -1.00025794e+01 -1.00020613e+01 -1.00005366e+01
 -9.99386703e+00 -9.98756107e+00 -8.83563551e-01 -8.59457244e-01
 -8.35568186e-01 -8.02492018e-01 -7.67944382e-01 -7.36531962e-01
 -7.25387367e-01 -7.14186094e-01 -6.95928581e-01 -6.76131558e-01
 -6.53785807e-01 -6.16235706e-01 -6.09999390e-01 -5.73704997e-01
 -5.55937101e-01 -5.42728877e-01 -5.29722465e-01 -5.21738790e-01
 -5.10153908e-01 -4.91734456e-01 -4.76401057e-01 -4.56879559e-01
 -4.49608074e-01 -4.39876574e-01 -4.20667948e-01 -3.98816031e-01
 -3.97363805e-01 -3.93093379e-01 -3.83547474e-01 -3.78361249e-01
 -3.72007008e-01 -3.65162185e-01 -3.55953221e-01 -3.50601123e-01
 -3.46496853e-01 -3.38512698e-01 -3.25959785e-01 -3.08979885e-01
 -3.00891230e-01 -2.75468277e-01 -2.60024250e-01 -2.55487233e-01
 -2.41718975e-01 -2.36410785e-01 -2.21087670e-01 -2.12139027e-01
 -1.92361216e-01 -1.75829978e-01 -1.69810927e-01 -1.48575391e-01
 -1.24737260e-01 -3.45924602e-03  2.21757016e-02  5.63092764e-02
  8.68758531e-02  1.13937436e-01  1.31603441e-01  1.47626971e-01
  1.55091558e-01  2.20727098e-01  2.23979411e-01  2.32754900e-01
  2.47628629e-01  2.62149212e-01  2.69372145e-01  2.87461531e-01
  2.92024230e-01  3.03909466e-01  3.11018130e-01  3.36577120e-01
  3.39751737e-01  3.51771516e-01  3.58104071e-01  3.71953554e-01
  3.78085082e-01  3.96469449e-01  4.13882566e-01  4.29943212e-01
  4.46164788e-01  4.57039860e-01  4.86991714e-01  5.06814997e-01
  5.43618637e-01  5.48201454e-01  5.59651655e-01  5.66677948e-01
  6.00068312e-01  6.02655352e-01  6.09445100e-01  6.44623275e-01
  6.61126984e-01  7.10250163e-01  7.21202535e-01  7.64210183e-01
  8.11402650e-01  8.25437716e-01  8.44475382e-01  8.98234806e-01
  9.60907005e-01  1.05831420e+00  1.11752969e+00  1.16882124e+00]
nelec by numeric integration = 145.99999926578488
    CPU time for vxc     38.58 sec, wall time     15.83 sec
E1 = -4108.099051467724  Ecoul = 1898.9991875664045  Exc = -124.62502341211686
cycle= 7 E= -835.408243130888  delta_E= -3.24e-05  |g|= 0.00146  |ddm|= 0.0143
    CPU time for cycle= 7     39.13 sec, wall time     15.91 sec
  HOMO = -0.124689703853456  LUMO = -0.00342866903190897
  mo_energy =
[-1.00465974e+01 -1.00374551e+01 -1.00357903e+01 -1.00348467e+01
 -1.00324050e+01 -1.00278045e+01 -1.00277241e+01 -1.00256388e+01
 -1.00248581e+01 -1.00192488e+01 -1.00189992e+01 -1.00181793e+01
 -1.00179621e+01 -1.00155286e+01 -1.00120614e+01 -1.00096748e+01
 -1.00085309e+01 -1.00023914e+01 -1.00019536e+01 -1.00007925e+01
 -9.99364930e+00 -9.98752443e+00 -8.83639616e-01 -8.59359569e-01
 -8.35547597e-01 -8.02597602e-01 -7.67892470e-01 -7.36494460e-01
 -7.25344379e-01 -7.14183330e-01 -6.95873393e-01 -6.76123848e-01
 -6.53728262e-01 -6.16250369e-01 -6.09957143e-01 -5.73725305e-01
 -5.55852199e-01 -5.42679509e-01 -5.29787249e-01 -5.21713631e-01
 -5.10152907e-01 -4.91763289e-01 -4.76378923e-01 -4.56806867e-01
 -4.49599620e-01 -4.39935410e-01 -4.20685503e-01 -3.98846065e-01
 -3.97384876e-01 -3.93009687e-01 -3.83590570e-01 -3.78354293e-01
 -3.71955108e-01 -3.65122198e-01 -3.55880111e-01 -3.50530153e-01
 -3.46474195e-01 -3.38485279e-01 -3.25857129e-01 -3.09074459e-01
 -3.00799219e-01 -2.75439271e-01 -2.59968647e-01 -2.55421004e-01
 -2.41716765e-01 -2.36366027e-01 -2.21001640e-01 -2.12144050e-01
 -1.92353763e-01 -1.75826171e-01 -1.69815235e-01 -1.48562053e-01
 -1.24689704e-01 -3.42866903e-03  2.22017790e-02  5.63081224e-02
  8.69362552e-02  1.14004454e-01  1.31655177e-01  1.47646058e-01
  1.55081124e-01  2.20668894e-01  2.23986781e-01  2.32682525e-01
  2.47615026e-01  2.62117486e-01  2.69370870e-01  2.87493786e-01
  2.92121079e-01  3.04058316e-01  3.11095589e-01  3.36674847e-01
  3.39711486e-01  3.51777936e-01  3.58220875e-01  3.72038111e-01
  3.78045840e-01  3.96492905e-01  4.13918865e-01  4.29954422e-01
  4.46227337e-01  4.57066331e-01  4.87064364e-01  5.06884946e-01
  5.43495943e-01  5.48305710e-01  5.59646009e-01  5.66590258e-01
  6.00103488e-01  6.02692116e-01  6.09390491e-01  6.44731230e-01
  6.61249727e-01  7.10369408e-01  7.21220428e-01  7.64236584e-01
  8.11345902e-01  8.25298143e-01  8.44525343e-01  8.98338401e-01
  9.60839641e-01  1.05837818e+00  1.11748998e+00  1.16872085e+00]
nelec by numeric integration = 145.99999926587955
    CPU time for vxc     38.66 sec, wall time     15.87 sec
E1 = -4108.098324992534  Ecoul = 1898.9984577399389  Exc = -124.62502072114145
cycle= 8 E= -835.408243791188  delta_E= -6.6e-07  |g|= 0.000706  |ddm|= 0.00313
    CPU time for cycle= 8     39.16 sec, wall time     15.95 sec
  HOMO = -0.124699126018686  LUMO = -0.00341459509061328
  mo_energy =
[-1.00466248e+01 -1.00374356e+01 -1.00357903e+01 -1.00348100e+01
 -1.00323288e+01 -1.00277706e+01 -1.00276489e+01 -1.00257355e+01
 -1.00248094e+01 -1.00192698e+01 -1.00187745e+01 -1.00182514e+01
 -1.00179466e+01 -1.00155866e+01 -1.00121008e+01 -1.00097683e+01
 -1.00085344e+01 -1.00024261e+01 -1.00019900e+01 -1.00007118e+01
 -9.99375283e+00 -9.98756457e+00 -8.83621342e-01 -8.59358738e-01
 -8.35539281e-01 -8.02575949e-01 -7.67894816e-01 -7.36488330e-01
 -7.25345231e-01 -7.14168804e-01 -6.95876898e-01 -6.76117156e-01
 -6.53750016e-01 -6.16236647e-01 -6.09961303e-01 -5.73722587e-01
 -5.55864644e-01 -5.42699618e-01 -5.29757642e-01 -5.21701076e-01
 -5.10162016e-01 -4.91741054e-01 -4.76375902e-01 -4.56824374e-01
 -4.49604621e-01 -4.39915601e-01 -4.20683876e-01 -3.98823387e-01
 -3.97373573e-01 -3.93019650e-01 -3.83593535e-01 -3.78346771e-01
 -3.71955382e-01 -3.65105107e-01 -3.55898789e-01 -3.50530045e-01
 -3.46451818e-01 -3.38477465e-01 -3.25855785e-01 -3.09051213e-01
 -3.00833750e-01 -2.75447033e-01 -2.59981928e-01 -2.55425109e-01
 -2.41727939e-01 -2.36370159e-01 -2.21024363e-01 -2.12128509e-01
 -1.92352410e-01 -1.75810146e-01 -1.69769231e-01 -1.48566088e-01
 -1.24699126e-01 -3.41459509e-03  2.22097629e-02  5.63151806e-02
  8.69128820e-02  1.13986255e-01  1.31645605e-01  1.47656902e-01
  1.55123394e-01  2.20690211e-01  2.24010538e-01  2.32714352e-01
  2.47635986e-01  2.62100863e-01  2.69371448e-01  2.87484935e-01
  2.92097237e-01  3.04065881e-01  3.11093743e-01  3.36675011e-01
  3.39714093e-01  3.51786098e-01  3.58190486e-01  3.72025103e-01
  3.78073187e-01  3.96464273e-01  4.13905408e-01  4.29977534e-01
  4.46211528e-01  4.57064822e-01  4.87038400e-01  5.06854169e-01
  5.43574407e-01  5.48276722e-01  5.59617219e-01  5.66596817e-01
  6.00105147e-01  6.02678599e-01  6.09424012e-01  6.44725936e-01
  6.61249296e-01  7.10352948e-01  7.21212718e-01  7.64277177e-01
  8.11347352e-01  8.25339331e-01  8.44514118e-01  8.98359436e-01
  9.60821942e-01  1.05841834e+00  1.11750022e+00  1.16872736e+00]
nelec by numeric integration = 145.9999992660042
    CPU time for vxc     38.09 sec, wall time     15.67 sec
E1 = -4108.097948205062  Ecoul = 1898.9981089617795  Exc = -124.62504890343997
cycle= 9 E= -835.408243964174  delta_E= -1.73e-07  |g|= 0.000219  |ddm|= 0.00126
    CPU time for cycle= 9     38.58 sec, wall time     15.75 sec
  HOMO = -0.124711463703335  LUMO = -0.00342008050384556
  mo_energy =
[-1.00465971e+01 -1.00374175e+01 -1.00358080e+01 -1.00348376e+01
 -1.00323097e+01 -1.00277804e+01 -1.00276795e+01 -1.00257545e+01
 -1.00247891e+01 -1.00192701e+01 -1.00188365e+01 -1.00182382e+01
 -1.00179282e+01 -1.00155481e+01 -1.00120745e+01 -1.00098115e+01
 -1.00085637e+01 -1.00024433e+01 -1.00020048e+01 -1.00007402e+01
 -9.99375652e+00 -9.98759481e+00 -8.83617906e-01 -8.59374688e-01
 -8.35548706e-01 -8.02563417e-01 -7.67906566e-01 -7.36494677e-01
 -7.25350829e-01 -7.14172194e-01 -6.95888104e-01 -6.76119590e-01
 -6.53755382e-01 -6.16240500e-01 -6.09969620e-01 -5.73722071e-01
 -5.55873384e-01 -5.42705725e-01 -5.29755811e-01 -5.21708134e-01
 -5.10164456e-01 -4.91746303e-01 -4.76378728e-01 -4.56832677e-01
 -4.49608800e-01 -4.39917625e-01 -4.20685663e-01 -3.98828601e-01
 -3.97374000e-01 -3.93025627e-01 -3.83585271e-01 -3.78348194e-01
 -3.71962141e-01 -3.65112731e-01 -3.55902697e-01 -3.50537065e-01
 -3.46463752e-01 -3.38486055e-01 -3.25861192e-01 -3.09040721e-01
 -3.00842035e-01 -2.75446545e-01 -2.59987585e-01 -2.55434794e-01
 -2.41732760e-01 -2.36372883e-01 -2.21030081e-01 -2.12130806e-01
 -1.92355225e-01 -1.75821689e-01 -1.69779979e-01 -1.48568596e-01
 -1.24711464e-01 -3.42008050e-03  2.22058263e-02  5.63087931e-02
  8.69076244e-02  1.13979726e-01  1.31642685e-01  1.47647107e-01
  1.55115593e-01  2.20692045e-01  2.24002388e-01  2.32714627e-01
  2.47627022e-01  2.62101245e-01  2.69370961e-01  2.87487852e-01
  2.92092709e-01  3.04059477e-01  3.11083614e-01  3.36670146e-01
  3.39720657e-01  3.51782026e-01  3.58184121e-01  3.72016453e-01
  3.78067032e-01  3.96462534e-01  4.13906025e-01  4.29966727e-01
  4.46202433e-01  4.57066076e-01  4.87029253e-01  5.06850200e-01
  5.43561133e-01  5.48268187e-01  5.59618424e-01  5.66604852e-01
  6.00099199e-01  6.02673483e-01  6.09418941e-01  6.44715041e-01
  6.61234480e-01  7.10342646e-01  7.21209934e-01  7.64252028e-01
  8.11360157e-01  8.25347148e-01  8.44509834e-01  8.98332613e-01
  9.60831960e-01  1.05839186e+00  1.11750331e+00  1.16874151e+00]
nelec by numeric integration = 145.99999926604627
    CPU time for vxc     38.58 sec, wall time     15.89 sec
E1 = -4108.098688015578  Ecoul = 1898.9988597685056  Exc = -124.6250599150597
cycle= 10 E= -835.408243979583  delta_E= -1.54e-08  |g|= 0.000101  |ddm|= 0.000422
    CPU time for cycle= 10     38.93 sec, wall time     15.94 sec
  HOMO = -0.124711206093273  LUMO = -0.00342185918905813
  mo_energy =
[-1.00466090e+01 -1.00374407e+01 -1.00358162e+01 -1.00348371e+01
 -1.00323325e+01 -1.00278009e+01 -1.00276839e+01 -1.00257432e+01
 -1.00248032e+01 -1.00192705e+01 -1.00188303e+01 -1.00182377e+01
 -1.00179321e+01 -1.00155610e+01 -1.00120765e+01 -1.00098046e+01
 -1.00085532e+01 -1.00024448e+01 -1.00020102e+01 -1.00007366e+01
 -9.99375526e+00 -9.98757233e+00 -8.83630735e-01 -8.59374638e-01
 -8.35549298e-01 -8.02574802e-01 -7.67904984e-01 -7.36498017e-01
 -7.25353548e-01 -7.14177783e-01 -6.95888247e-01 -6.76122197e-01
 -6.53754338e-01 -6.16243516e-01 -6.09970167e-01 -5.73725549e-01
 -5.55873653e-01 -5.42704168e-01 -5.29763800e-01 -5.21710292e-01
 -5.10166949e-01 -4.91749318e-01 -4.76381542e-01 -4.56831276e-01
 -4.49608147e-01 -4.39920377e-01 -4.20686909e-01 -3.98834985e-01
 -3.97380723e-01 -3.93025504e-01 -3.83588843e-01 -3.78353188e-01
 -3.71965710e-01 -3.65116269e-01 -3.55902571e-01 -3.50536544e-01
 -3.46465305e-01 -3.38486562e-01 -3.25862979e-01 -3.09050668e-01
 -3.00837412e-01 -2.75450256e-01 -2.59986634e-01 -2.55433818e-01
 -2.41731093e-01 -2.36374679e-01 -2.21031023e-01 -2.12136429e-01
 -1.92358690e-01 -1.75822687e-01 -1.69785837e-01 -1.48571382e-01
 -1.24711206e-01 -3.42185919e-03  2.22018697e-02  5.63075904e-02
  8.69100934e-02  1.13978629e-01  1.31642283e-01  1.47644283e-01
  1.55107720e-01  2.20684725e-01  2.23998576e-01  2.32706441e-01
  2.47624786e-01  2.62105615e-01  2.69367683e-01  2.87483744e-01
  2.92094046e-01  3.04056523e-01  3.11080833e-01  3.36668718e-01
  3.39717624e-01  3.51777169e-01  3.58185536e-01  3.72019995e-01
  3.78060378e-01  3.96466242e-01  4.13901123e-01  4.29966300e-01
  4.46204996e-01  4.57059158e-01  4.87033219e-01  5.06852585e-01
  5.43559756e-01  5.48271415e-01  5.59620556e-01  5.66600508e-01
  6.00097181e-01  6.02669338e-01  6.09414942e-01  6.44713552e-01
  6.61233864e-01  7.10342426e-01  7.21205653e-01  7.64253386e-01
  8.11351830e-01  8.25335164e-01  8.44507898e-01  8.98334340e-01
  9.60831619e-01  1.05839209e+00  1.11748888e+00  1.16872583e+00]
nelec by numeric integration = 145.99999926603817
    CPU time for vxc     38.40 sec, wall time     15.82 sec
E1 = -4108.098914721626  Ecoul = 1898.9990901358901  Exc = -124.62506357956175
cycle= 11 E= -835.408243982749  delta_E= -3.17e-09  |g|= 3.85e-05  |ddm|= 0.000185
    CPU time for cycle= 11     38.85 sec, wall time     15.89 sec
  HOMO = -0.124711064925827  LUMO = -0.0034204389905903
  mo_energy =
[-1.00466061e+01 -1.00374345e+01 -1.00358120e+01 -1.00348413e+01
 -1.00323238e+01 -1.00277958e+01 -1.00276871e+01 -1.00257429e+01
 -1.00247995e+01 -1.00192688e+01 -1.00188321e+01 -1.00182408e+01
 -1.00179329e+01 -1.00155555e+01 -1.00120799e+01 -1.00098052e+01
 -1.00085552e+01 -1.00024379e+01 -1.00020009e+01 -1.00007409e+01
 -9.99375148e+00 -9.98757340e+00 -8.83627746e-01 -8.59375857e-01
 -8.35549945e-01 -8.02570641e-01 -7.67905957e-01 -7.36496660e-01
 -7.25351393e-01 -7.14175904e-01 -6.95886908e-01 -6.76122167e-01
 -6.53753789e-01 -6.16242669e-01 -6.09969269e-01 -5.73724246e-01
 -5.55873005e-01 -5.42703333e-01 -5.29762017e-01 -5.21710645e-01
 -5.10164646e-01 -4.91749217e-01 -4.76381178e-01 -4.56831105e-01
 -4.49608575e-01 -4.39919503e-01 -4.20686123e-01 -3.98833517e-01
 -3.97378176e-01 -3.93025280e-01 -3.83586422e-01 -3.78351070e-01
 -3.71965151e-01 -3.65116028e-01 -3.55901985e-01 -3.50536293e-01
 -3.46465970e-01 -3.38487282e-01 -3.25864274e-01 -3.09047107e-01
 -3.00837096e-01 -2.75447507e-01 -2.59986719e-01 -2.55434524e-01
 -2.41730421e-01 -2.36374398e-01 -2.21029258e-01 -2.12134464e-01
 -1.92356827e-01 -1.75822050e-01 -1.69785491e-01 -1.48571085e-01
 -1.24711065e-01 -3.42043899e-03  2.22031578e-02  5.63085902e-02
  8.69111858e-02  1.13980814e-01  1.31641993e-01  1.47646049e-01
  1.55109197e-01  2.20687077e-01  2.23998002e-01  2.32708425e-01
  2.47625250e-01  2.62105116e-01  2.69369431e-01  2.87486503e-01
  2.92094473e-01  3.04055831e-01  3.11081129e-01  3.36667926e-01
  3.39719751e-01  3.51778302e-01  3.58185280e-01  3.72019402e-01
  3.78062736e-01  3.96465722e-01  4.13905408e-01  4.29964686e-01
  4.46206752e-01  4.57060981e-01  4.87034455e-01  5.06851782e-01
  5.43557339e-01  5.48270982e-01  5.59620428e-01  5.66601634e-01
  6.00098362e-01  6.02673713e-01  6.09415954e-01  6.44714598e-01
  6.61233630e-01  7.10342982e-01  7.21210243e-01  7.64252751e-01
  8.11356264e-01  8.25339107e-01  8.44508861e-01  8.98332184e-01
  9.60830575e-01  1.05838858e+00  1.11749209e+00  1.16873002e+00]
nelec by numeric integration = 145.99999926603408
    CPU time for vxc     38.11 sec, wall time     15.78 sec
E1 = -4108.098858498563  Ecoul = 1898.9990307368685  Exc = -124.6250604040569
cycle= 12 E= -835.408243983203  delta_E= -4.53e-10  |g|= 1.99e-05  |ddm|= 8.45e-05
    CPU time for cycle= 12     38.65 sec, wall time     15.86 sec
  HOMO = -0.124710132471578  LUMO = -0.00341916333468312
  mo_energy =
[-1.00466043e+01 -1.00374340e+01 -1.00358097e+01 -1.00348355e+01
 -1.00323241e+01 -1.00277926e+01 -1.00276809e+01 -1.00257446e+01
 -1.00247975e+01 -1.00192671e+01 -1.00188295e+01 -1.00182369e+01
 -1.00179300e+01 -1.00155561e+01 -1.00120762e+01 -1.00098028e+01
 -1.00085529e+01 -1.00024382e+01 -1.00020026e+01 -1.00007380e+01
 -9.99375432e+00 -9.98757365e+00 -8.83626074e-01 -8.59373103e-01
 -8.35547586e-01 -8.02570271e-01 -7.67904007e-01 -7.36495279e-01
 -7.25350823e-01 -7.14174690e-01 -6.95886301e-01 -6.76120304e-01
 -6.53753042e-01 -6.16241345e-01 -6.09968218e-01 -5.73723304e-01
 -5.55872068e-01 -5.42702908e-01 -5.29761141e-01 -5.21708744e-01
 -5.10164228e-01 -4.91747668e-01 -4.76379887e-01 -4.56829958e-01
 -4.49607397e-01 -4.39918713e-01 -4.20685309e-01 -3.98832050e-01
 -3.97377389e-01 -3.93024525e-01 -3.83586425e-01 -3.78350612e-01
 -3.71963465e-01 -3.65114775e-01 -3.55901903e-01 -3.50535338e-01
 -3.46464472e-01 -3.38485156e-01 -3.25861726e-01 -3.09046592e-01
 -3.00836942e-01 -2.75447529e-01 -2.59985669e-01 -2.55433053e-01
 -2.41729895e-01 -2.36372702e-01 -2.21028840e-01 -2.12133620e-01
 -1.92356112e-01 -1.75821060e-01 -1.69783774e-01 -1.48569549e-01
 -1.24710132e-01 -3.41916333e-03  2.22046965e-02  5.63095101e-02
  8.69115241e-02  1.13981156e-01  1.31643827e-01  1.47646961e-01
  1.55110718e-01  2.20688108e-01  2.24000115e-01  2.32709785e-01
  2.47626944e-01  2.62105774e-01  2.69370192e-01  2.87486598e-01
  2.92094702e-01  3.04057615e-01  3.11083007e-01  3.36669483e-01
  3.39719436e-01  3.51779740e-01  3.58185796e-01  3.72019912e-01
  3.78063505e-01  3.96466568e-01  4.13904582e-01  4.29966817e-01
  4.46206769e-01  4.57062007e-01  4.87034328e-01  5.06853193e-01
  5.43558730e-01  5.48271595e-01  5.59620827e-01  5.66602294e-01
  6.00099397e-01  6.02673392e-01  6.09417098e-01  6.44716165e-01
  6.61235840e-01  7.10344750e-01  7.21210009e-01  7.64254887e-01
  8.11356358e-01  8.25339858e-01  8.44510506e-01  8.98335359e-01
  9.60832714e-01  1.05839328e+00  1.11749425e+00  1.16873113e+00]
nelec by numeric integration = 145.99999926603195
    CPU time for vxc     38.35 sec, wall time     15.72 sec
E1 = -4108.098707350928  Ecoul = 1898.9988771502099  Exc = -124.62505796516004
cycle= 13 E= -835.40824398333  delta_E= -1.27e-10  |g|= 8.03e-06  |ddm|= 4e-05
    CPU time for cycle= 13     38.89 sec, wall time     15.81 sec
  HOMO = -0.124710580721094  LUMO = -0.00341961417272084
  mo_energy =
[-1.00466051e+01 -1.00374342e+01 -1.00358111e+01 -1.00348373e+01
 -1.00323249e+01 -1.00277941e+01 -1.00276827e+01 -1.00257437e+01
 -1.00247985e+01 -1.00192685e+01 -1.00188301e+01 -1.00182387e+01
 -1.00179312e+01 -1.00155564e+01 -1.00120770e+01 -1.00098038e+01
 -1.00085537e+01 -1.00024393e+01 -1.00020031e+01 -1.00007376e+01
 -9.99375284e+00 -9.98757422e+00 -8.83626725e-01 -8.59374036e-01
 -8.35548437e-01 -8.02570788e-01 -7.67904610e-01 -7.36495915e-01
 -7.25351221e-01 -7.14175216e-01 -6.95886589e-01 -6.76120958e-01
 -6.53753386e-01 -6.16241908e-01 -6.09968698e-01 -5.73723808e-01
 -5.55872491e-01 -5.42703204e-01 -5.29761466e-01 -5.21709338e-01
 -5.10164714e-01 -4.91748209e-01 -4.76380342e-01 -4.56830461e-01
 -4.49607794e-01 -4.39919022e-01 -4.20685713e-01 -3.98832585e-01
 -3.97377850e-01 -3.93024868e-01 -3.83586759e-01 -3.78350953e-01
 -3.71964106e-01 -3.65115075e-01 -3.55901837e-01 -3.50535706e-01
 -3.46464814e-01 -3.38485893e-01 -3.25862541e-01 -3.09047059e-01
 -3.00837050e-01 -2.75447834e-01 -2.59986089e-01 -2.55433502e-01
 -2.41730210e-01 -2.36373401e-01 -2.21029205e-01 -2.12134042e-01
 -1.92356541e-01 -1.75821347e-01 -1.69784156e-01 -1.48570209e-01
 -1.24710581e-01 -3.41961417e-03  2.22040391e-02  5.63091280e-02
  8.69112530e-02  1.13980813e-01  1.31643068e-01  1.47646528e-01
  1.55110308e-01  2.20687538e-01  2.23999510e-01  2.32709194e-01
  2.47626311e-01  2.62105388e-01  2.69369656e-01  2.87486222e-01
  2.92094525e-01  3.04057274e-01  3.11082343e-01  3.36669101e-01
  3.39719287e-01  3.51779190e-01  3.58185688e-01  3.72019744e-01
  3.78063137e-01  3.96466201e-01  4.13904420e-01  4.29966199e-01
  4.46206542e-01  4.57061641e-01  4.87034229e-01  5.06852645e-01
  5.43558788e-01  5.48271428e-01  5.59620663e-01  5.66601909e-01
  6.00098890e-01  6.02673017e-01  6.09416720e-01  6.44715493e-01
  6.61235105e-01  7.10343925e-01  7.21209525e-01  7.64254293e-01
  8.11355867e-01  8.25339292e-01  8.44509677e-01  8.98334426e-01
  9.60831986e-01  1.05839189e+00  1.11749331e+00  1.16873064e+00]
nelec by numeric integration = 145.99999926603462
    CPU time for vxc     38.10 sec, wall time     15.67 sec
E1 = -4108.098761534136  Ecoul = 1898.9989328170543  Exc = -124.62505944881337
cycle= 14 E= -835.408243983347  delta_E= -1.73e-11  |g|= 3.2e-06  |ddm|= 1.39e-05
    CPU time for cycle= 14     38.64 sec, wall time     15.75 sec
  HOMO = -0.124710761309175  LUMO = -0.00341973035923231
  mo_energy =
[-1.00466056e+01 -1.00374348e+01 -1.00358110e+01 -1.00348376e+01
 -1.00323243e+01 -1.00277945e+01 -1.00276834e+01 -1.00257444e+01
 -1.00247985e+01 -1.00192677e+01 -1.00188304e+01 -1.00182381e+01
 -1.00179311e+01 -1.00155559e+01 -1.00120775e+01 -1.00098045e+01
 -1.00085536e+01 -1.00024387e+01 -1.00020030e+01 -1.00007395e+01
 -9.99375464e+00 -9.98757302e+00 -8.83627135e-01 -8.59374296e-01
 -8.35548613e-01 -8.02570701e-01 -7.67904896e-01 -7.36495957e-01
 -7.25351288e-01 -7.14175336e-01 -6.95886846e-01 -6.76121067e-01
 -6.53753527e-01 -6.16241989e-01 -6.09968808e-01 -5.73723848e-01
 -5.55872629e-01 -5.42703288e-01 -5.29761659e-01 -5.21709518e-01
 -5.10164679e-01 -4.91748346e-01 -4.76380463e-01 -4.56830587e-01
 -4.49607898e-01 -4.39919160e-01 -4.20685796e-01 -3.98832849e-01
 -3.97377945e-01 -3.93024902e-01 -3.83586647e-01 -3.78351006e-01
 -3.71964327e-01 -3.65115311e-01 -3.55902160e-01 -3.50535643e-01
 -3.46465188e-01 -3.38486067e-01 -3.25862433e-01 -3.09047029e-01
 -3.00837248e-01 -2.75447813e-01 -2.59986194e-01 -2.55433729e-01
 -2.41730263e-01 -2.36373338e-01 -2.21029280e-01 -2.12134100e-01
 -1.92356585e-01 -1.75821662e-01 -1.69784405e-01 -1.48570242e-01
 -1.24710761e-01 -3.41973036e-03  2.22039949e-02  5.63089071e-02
  8.69112417e-02  1.13980659e-01  1.31643160e-01  1.47646328e-01
  1.55110112e-01  2.20687484e-01  2.23999272e-01  2.32709043e-01
  2.47626118e-01  2.62105529e-01  2.69369673e-01  2.87486337e-01
  2.92094418e-01  3.04057279e-01  3.11082053e-01  3.36669076e-01
  3.39719330e-01  3.51778978e-01  3.58185371e-01  3.72019692e-01
  3.78062916e-01  3.96466173e-01  4.13904552e-01  4.29966068e-01
  4.46206618e-01  4.57061526e-01  4.87034209e-01  5.06852552e-01
  5.43558110e-01  5.48271130e-01  5.59620448e-01  5.66601887e-01
  6.00098786e-01  6.02673093e-01  6.09416470e-01  6.44715446e-01
  6.61234953e-01  7.10343915e-01  7.21209673e-01  7.64253901e-01
  8.11356046e-01  8.25339270e-01  8.44509638e-01  8.98333993e-01
  9.60831850e-01  1.05839147e+00  1.11749294e+00  1.16873022e+00]
nelec by numeric integration = 145.9999992660357
    CPU time for vxc     38.76 sec, wall time     15.93 sec
E1 = -4108.09879713919  Ecoul = 1898.99896880275  Exc = -124.62505982944649
Extra cycle  E= -835.408243983338  delta_E= 9.09e-12  |g|= 7.28e-06  |ddm|= 1.41e-05
    CPU time for scf_cycle    628.98 sec, wall time    255.75 sec
    CPU time for SCF    628.98 sec, wall time    255.75 sec
converged SCF energy = -835.408243983338
nelec by numeric integration = 145.9999992660357
    CPU time for vxc     38.32 sec, wall time     15.76 sec
 ** Mulliken pop  **
pop of  0 C 1s            1.99021
pop of  0 C 2s            1.07451
pop of  0 C 2px           1.01313
pop of  0 C 2py           0.97452
pop of  0 C 2pz           0.96307
pop of  1 C 1s            1.99068
pop of  1 C 2s            1.12255
pop of  1 C 2px           1.00337
pop of  1 C 2py           0.94356
pop of  1 C 2pz           0.93512
pop of  2 C 1s            1.99076
pop of  2 C 2s            1.07415
pop of  2 C 2px           1.01595
pop of  2 C 2py           1.00586
pop of  2 C 2pz           1.00592
pop of  3 C 1s            1.99104
pop of  3 C 2s            1.17858
pop of  3 C 2px           1.00239
pop of  3 C 2py           0.91529
pop of  3 C 2pz           0.97491
pop of  4 C 1s            1.99147
pop of  4 C 2s            1.24085
pop of  4 C 2px           0.98487
pop of  4 C 2py           0.90845
pop of  4 C 2pz           0.94416
pop of  5 C 1s            1.99087
pop of  5 C 2s            1.11110
pop of  5 C 2px           1.00016
pop of  5 C 2py           0.96247
pop of  5 C 2pz           0.97640
pop of  6 C 1s            1.99188
pop of  6 C 2s            1.28269
pop of  6 C 2px           0.96210
pop of  6 C 2py           0.91850
pop of  6 C 2pz           0.90883
pop of  7 C 1s            1.99144
pop of  7 C 2s            1.11236
pop of  7 C 2px           0.98049
pop of  7 C 2py           1.04363
pop of  7 C 2pz           0.95911
pop of  8 C 1s            1.99147
pop of  8 C 2s            1.23092
pop of  8 C 2px           0.98775
pop of  8 C 2py           0.89460
pop of  8 C 2pz           0.87860
pop of  9 C 1s            1.99087
pop of  9 C 2s            1.02048
pop of  9 C 2px           1.00997
pop of  9 C 2py           1.03333
pop of  9 C 2pz           0.98049
pop of  10 C 1s           1.99152
pop of  10 C 2s           1.21386
pop of  10 C 2px          0.94737
pop of  10 C 2py          0.92694
pop of  10 C 2pz          0.93647
pop of  11 C 1s           1.99082
pop of  11 C 2s           1.03963
pop of  11 C 2px          1.05280
pop of  11 C 2py          1.01405
pop of  11 C 2pz          1.02334
pop of  12 C 1s           1.99171
pop of  12 C 2s           1.03596
pop of  12 C 2px          1.00214
pop of  12 C 2py          0.98937
pop of  12 C 2pz          0.96720
pop of  13 C 1s           1.99162
pop of  13 C 2s           1.17549
pop of  13 C 2px          0.96565
pop of  13 C 2py          0.91693
pop of  13 C 2pz          0.91011
pop of  14 C 1s           1.99143
pop of  14 C 2s           0.97963
pop of  14 C 2px          1.05393
pop of  14 C 2py          1.09302
pop of  14 C 2pz          1.06247
pop of  15 C 1s           1.99091
pop of  15 C 2s           1.17233
pop of  15 C 2px          0.97939
pop of  15 C 2py          0.93369
pop of  15 C 2pz          1.00386
pop of  16 C 1s           1.99202
pop of  16 C 2s           1.08313
pop of  16 C 2px          0.96829
pop of  16 C 2py          0.94529
pop of  16 C 2pz          0.97241
pop of  17 C 1s           1.99101
pop of  17 C 2s           1.10343
pop of  17 C 2px          1.00472
pop of  17 C 2py          0.96310
pop of  17 C 2pz          0.91523
pop of  18 C 1s           1.99136
pop of  18 C 2s           1.21085
pop of  18 C 2px          0.95051
pop of  18 C 2py          0.93875
pop of  18 C 2pz          0.95566
pop of  19 C 1s           1.99030
pop of  19 C 2s           1.07392
pop of  19 C 2px          1.05963
pop of  19 C 2py          0.98331
pop of  19 C 2pz          1.03770
pop of  20 C 1s           1.99132
pop of  20 C 2s           1.16898
pop of  20 C 2px          1.02287
pop of  20 C 2py          1.00190
pop of  20 C 2pz          0.92577
pop of  21 C 1s           1.99165
pop of  21 C 2s           1.21466
pop of  21 C 2px          0.92506
pop of  21 C 2py          0.95341
pop of  21 C 2pz          0.94008
pop of  22 H 1s           0.92495
pop of  23 H 1s           0.90382
pop of  24 H 1s           0.92834
pop of  25 H 1s           0.94482
pop of  26 H 1s           0.93696
pop of  27 H 1s           0.89478
pop of  28 H 1s           0.99141
pop of  29 H 1s           0.90182
pop of  30 H 1s           0.90315
pop of  31 H 1s           0.93912
pop of  32 H 1s           0.94831
pop of  33 H 1s           0.89459
pop of  34 H 1s           0.89522
pop of  35 H 1s           0.93686
 ** Mulliken atomic charges  **
charge of    0C =     -0.01544
charge of    1C =      0.00471
charge of    2C =     -0.09264
charge of    3C =     -0.06220
charge of    4C =     -0.06980
charge of    5C =     -0.04099
charge of    6C =     -0.06401
charge of    7C =     -0.08702
charge of    8C =      0.01667
charge of    9C =     -0.03514
charge of   10C =     -0.01616
charge of   11C =     -0.12064
charge of   12C =      0.01362
charge of   13C =      0.04020
charge of   14C =     -0.18048
charge of   15C =     -0.08019
charge of   16C =      0.03886
charge of   17C =      0.02250
charge of   18C =     -0.04714
charge of   19C =     -0.14486
charge of   20C =     -0.11084
charge of   21C =     -0.02486
charge of   22H =      0.07505
charge of   23H =      0.09618
charge of   24H =      0.07166
charge of   25H =      0.05518
charge of   26H =      0.06304
charge of   27H =      0.10522
charge of   28H =      0.00859
charge of   29H =      0.09818
charge of   30H =      0.09685
charge of   31H =      0.06088
charge of   32H =      0.05169
charge of   33H =      0.10541
charge of   34H =      0.10478
charge of   35H =      0.06314
Dipole moment(X, Y, Z, Debye):  0.34142, -0.26565, -0.15980
nelec by numeric integration = 145.9999992660357
    CPU time for vxc     38.04 sec, wall time     15.80 sec
E1 = -4108.09879713919  Ecoul = 1898.998968802749  Exc = -124.62505982944649
nelec by numeric integration = 145.9999992660357
    CPU time for vxc     38.06 sec, wall time     15.72 sec
E1 = -4108.09879713919  Ecoul = 1898.9989688027488  Exc = -124.62505982944649
