System: uname_result(system='Linux', node='cosmopc18', release='5.15.0-97-generic', version='#107-Ubuntu SMP Wed Feb 7 13:26:48 UTC 2024', machine='x86_64')  Threads 4
Python 3.11.8 (main, Feb 26 2024, 21:39:34) [GCC 11.2.0]
numpy 1.26.4  scipy 1.11.4
Date: Tue Apr  9 11:25:50 2024
PySCF version 2.3.0
PySCF path  /home/saade/miniconda3/envs/tutorial/lib/python3.11/site-packages/pyscf

[ENV] PYSCFAD_BACKEND torch
[CONFIG] conf_file None
[INPUT] verbose = 5
[INPUT] max_memory = 4000 
[INPUT] num. atoms = 36
[INPUT] num. electrons = 146
[INPUT] charge = 0
[INPUT] spin (= nelec alpha-beta = 2S) = 0
[INPUT] symmetry False subgroup None
[INPUT] Mole.unit = angstrom
[INPUT] Symbol           X                Y                Z      unit          X                Y                Z       unit  Magmom
[INPUT]  1 C      0.099902000000   3.738162000000   0.709926000000 AA    0.188787419296   7.064102389256   1.341565708708 Bohr   0.0
[INPUT]  2 C      0.028354000000   3.610020000000  -0.677713000000 AA    0.053581294536   6.821949104202  -1.280691961057 Bohr   0.0
[INPUT]  3 C     -0.030799000000   5.069056000000   1.483346000000 AA   -0.058201674910   9.579127550083   2.803117687969 Bohr   0.0
[INPUT]  4 C      0.178224000000   2.476656000000   1.713522000000 AA    0.336794548824   4.680201544761   3.238087288417 Bohr   0.0
[INPUT]  5 C     -0.179122000000   4.961126000000  -1.303100000000 AA   -0.338491522884   9.375169409459  -2.462502112921 Bohr   0.0
[INPUT]  6 C      0.042701000000   2.586499000000  -1.284942000000 AA    0.080693195245   4.887774731461  -2.428188465951 Bohr   0.0
[INPUT]  7 C     -0.058925000000   5.970123000000  -0.981455000000 AA   -0.111352111890  11.281897399967  -1.854681153585 Bohr   0.0
[INPUT]  8 C      0.183116000000   6.180470000000   0.650849000000 AA    0.346039089026  11.679395621091   1.229926358447 Bohr   0.0
[INPUT]  9 C     -0.054001000000   1.161650000000   0.489755000000 AA   -0.102047100453   2.195200352601   0.925502818136 Bohr   0.0
[INPUT] 10 C     -0.091728000000   1.338114000000  -0.681581000000 AA   -0.173340797954   2.528668983446  -1.288001421707 Bohr   0.0
[INPUT] 11 C      0.046094000000  -0.011035000000   1.278297000000 AA    0.087105035986  -0.020853127785   2.415631235853 Bohr   0.0
[INPUT] 12 C      0.026659000000  -0.122188000000  -1.302091000000 AA    0.050378208755  -0.230901855708  -2.460595379261 Bohr   0.0
[INPUT] 13 C     -0.112147000000  -1.171541000000   0.760550000000 AA   -0.211927115692  -2.213891633699   1.437231204038 Bohr   0.0
[INPUT] 14 C     -0.073711000000  -1.290649000000  -0.669357000000 AA   -0.139293602368  -2.438973132944  -1.264901409560 Bohr   0.0
[INPUT] 15 C      0.059097000000  -2.273698000000   1.226483000000 AA    0.111677144783  -4.296666509971   2.317716966435 Bohr   0.0
[INPUT] 16 C     -0.140263000000  -2.411202000000  -1.445090000000 AA   -0.265058655410  -4.556511411004  -2.730824325348 Bohr   0.0
[INPUT] 17 C      0.057684000000  -3.579322000000   0.929139000000 AA    0.109006961769  -6.763938291630   1.755818241652 Bohr   0.0
[INPUT] 18 C      0.035341000000  -3.712495000000  -0.648866000000 AA    0.066784810968  -7.015598788817  -1.226179031542 Bohr   0.0
[INPUT] 19 C      0.001393000000  -4.984532000000   1.485508000000 AA    0.002632388492  -9.419400339131   2.807203275850 Bohr   0.0
[INPUT] 20 C      0.044333000000  -4.876866000000  -1.397023000000 AA    0.083777228280  -9.215941086203  -2.639990859718 Bohr   0.0
[INPUT] 21 C     -0.060173000000  -6.072326000000   0.661079000000 AA   -0.113710490093 -11.475033079076   1.249258256701 Bohr   0.0
[INPUT] 22 C     -0.049944000000  -6.036076000000  -0.613824000000 AA   -0.094380481565 -11.406530507060  -1.159959248685 Bohr   0.0
[INPUT] 23 H      0.170616000000   4.833327000000   2.477995000000 AA    0.322417512469   9.133664300466   4.682731888042 Bohr   0.0
[INPUT] 24 H     -0.042761000000   2.329170000000   2.446195000000 AA   -0.080806578813   4.401493397553   4.622638597280 Bohr   0.0
[INPUT] 25 H     -0.008928000000   4.885565000000  -2.551542000000 AA   -0.016871474840   9.232379813761  -4.821715575325 Bohr   0.0
[INPUT] 26 H     -0.143885000000   2.324721000000  -2.471853000000 AA   -0.271903243433   4.393086006025  -4.671125190185 Bohr   0.0
[INPUT] 27 H      0.088410000000   7.178544000000  -1.237628000000 AA    0.167070686673  13.565482133140  -2.338777964093 Bohr   0.0
[INPUT] 28 H     -0.170885000000   7.006364000000   1.182449000000 AA   -0.322925848796  13.240109089012   2.234504766266 Bohr   0.0
[INPUT] 29 H     -0.050119000000  -0.026370000000   2.489797000000 AA   -0.094711183637  -0.049832077905   4.705034435764 Bohr   0.0
[INPUT] 30 H      0.045363000000   0.080776000000  -2.633652000000 AA    0.085723646189   0.152644517438  -4.976880987413 Bohr   0.0
[INPUT] 31 H     -0.024494000000  -2.498306000000   2.554451000000 AA   -0.046286951695  -4.721114115358   4.827212788621 Bohr   0.0
[INPUT] 32 H     -0.066444000000  -2.458551000000  -2.420150000000 AA   -0.125560962621  -4.645988053276  -4.573420680366 Bohr   0.0
[INPUT] 33 H      0.050640000000  -4.903445000000   2.556746000000 AA    0.095695730948  -9.266168116868   4.831549710077 Bohr   0.0
[INPUT] 34 H     -0.083563000000  -5.126773000000  -2.456329000000 AA   -0.157911184147  -9.688196872815  -4.641789081827 Bohr   0.0
[INPUT] 35 H      0.039941000000  -7.033034000000   1.050458000000 AA    0.075477551141 -13.290508084754   1.985077925358 Bohr   0.0
[INPUT] 36 H      0.001946000000  -7.155533000000  -1.148162000000 AA    0.003677407038 -13.521997645287  -2.169711726633 Bohr   0.0
[INPUT] ---------------- BASIS SET ---------------- 
[INPUT] l, kappa, [nprim/nctr], expnt,             c_1 c_2 ...
[INPUT] H
[INPUT] 0    0    [3    /1   ]  3.42525091        0.15432897
                                0.62391373        0.53532814
                                0.1688554         0.44463454
[INPUT] C
[INPUT] 0    0    [3    /1   ]  71.616837         0.15432897
                                13.045096         0.53532814
                                3.5305122         0.44463454
[INPUT] 0    0    [3    /1   ]  2.9412494         -0.09996723
                                0.6834831         0.39951283
                                0.2222899         0.70011547
[INPUT] 1    0    [3    /1   ]  2.9412494         0.15591627
                                0.6834831         0.60768372
                                0.2222899         0.39195739

nuclear repulsion = 1501.09343290064
number of shells = 80
number of NR pGTOs = 372
number of NR cGTOs = 124
basis = sto3g
ecp = {}
CPU time:     15232.34
atom C rad-grids = 99, ang-grids = [ 50  50  50  50  50  50  50  50  50  50  50  50  50  50  50  50  50  50
  50  50  50  50  50  50  50  50  50  50  50  50  50  86  86  86  86  86
  86  86  86  86  86  86  86 434 434 434 434 434 434 434 434 434 590 590
 590 590 590 590 590 590 590 590 590 590 590 590 590 590 590 590 590 590
 590 590 590 590 590 590 590 434 434 434 434 434 434 434 434 434 434 434
 434 434 434 434 434 434 434 434 434]
atom H rad-grids = 99, ang-grids = [ 50  50  50  50  50  50  50  50  50  50  50  50  50  50  50  50  50  50
  50  50  50  50  50  50  50  50  50  50  86  86  86  86  86  86  86 434
 434 434 434 434 434 434 434 590 590 590 590 590 590 590 590 590 590 590
 590 590 590 590 590 590 590 590 590 590 590 590 590 590 590 434 434 434
 434 434 434 434 434 434 434 434 434 434 434 434 434 434 434 434 434 434
 434 434 434 434 434 434 434 434 434]
tot_boxes 5440, boxes in each direction [ 8 30 15]
Padding 0 grids
tot grids = 1157832


******** <class 'pyscf.dft.rks.RKS'> ********
method = RKS
initial guess = minao
damping factor = 0
level_shift factor = 0
DIIS = <class 'pyscf.scf.diis.CDIIS'>
diis_start_cycle = 1
diis_space = 8
SCF conv_tol = 1e-10
SCF conv_tol_grad = None
SCF max_cycles = 50
direct_scf = True
direct_scf_tol = 1e-13
chkfile to save SCF result = /home/saade/mlelec/tutorials/tmpvd_bd4jb
max_memory 4000 MB (current use 637 MB)
XC library pyscf.dft.libxc version 6.1.0
    S. Lehtola, C. Steigemann, M. J.T. Oliveira, and M. A.L. Marques.,  SoftwareX 7, 1–5 (2018)
XC functionals = b3lypg
    P. J. Stephens, F. J. Devlin, C. F. Chabalowski, and M. J. Frisch.,  J. Phys. Chem. 98, 11623 (1994)
radial grids: 
    Treutler-Ahlrichs [JCP 102, 346 (1995); DOI:10.1063/1.469408] (M4) radial grids
    
becke partition: Becke, JCP 88, 2547 (1988); DOI:10.1063/1.454033
pruning grids: <function nwchem_prune at 0x7f9db5616ca0>
grids dens level: 3
symmetrized grids: False
atomic radii adjust function: <function treutler_atomic_radii_adjust at 0x7f9db5617380>
User specified grid scheme (99, 590)
small_rho_cutoff = 1e-07
Set gradient conv threshold to 1e-05
Initial guess from minao.
nelec by numeric integration = 145.27207606473684
    CPU time for vxc     37.49 sec, wall time     15.72 sec
E1 = -4101.58144611671  Ecoul = 1885.037644149712  Exc = -126.13330415164023
init E= -841.583673218003
cond(S) = 34.111893864451154
    CPU time for initialize scf     47.05 sec, wall time     18.06 sec
  HOMO = -0.205311420386535  LUMO = -0.153785485058941
  mo_energy =
[-1.01589490e+01 -1.01587473e+01 -1.01418819e+01 -1.01366752e+01
 -1.01360178e+01 -1.01304907e+01 -1.01299002e+01 -1.01260739e+01
 -1.01214321e+01 -1.01125576e+01 -1.01123392e+01 -1.01105752e+01
 -1.01031579e+01 -1.00950407e+01 -1.00923215e+01 -1.00888718e+01
 -1.00851336e+01 -1.00845396e+01 -1.00816977e+01 -1.00812196e+01
 -1.00779565e+01 -1.00722331e+01 -1.12673794e+00 -1.08753515e+00
 -1.04076312e+00 -1.02118886e+00 -9.57931260e-01 -9.50899022e-01
 -9.11664913e-01 -8.91686149e-01 -8.79335229e-01 -8.43202120e-01
 -8.02234232e-01 -7.71930231e-01 -7.47306282e-01 -7.17015047e-01
 -6.86077029e-01 -6.71808217e-01 -6.54298297e-01 -6.49698486e-01
 -5.96448684e-01 -5.88329365e-01 -5.78758807e-01 -5.48939049e-01
 -5.36373019e-01 -5.29976210e-01 -5.22582703e-01 -5.12287879e-01
 -4.99158740e-01 -4.88466896e-01 -4.77467413e-01 -4.73686700e-01
 -4.63667020e-01 -4.53370744e-01 -4.44075167e-01 -4.25368881e-01
 -4.25078315e-01 -4.21163559e-01 -4.06516757e-01 -3.91495804e-01
 -3.86692073e-01 -3.68964375e-01 -3.58097126e-01 -3.52881344e-01
 -3.45191478e-01 -3.21159907e-01 -3.02768521e-01 -2.96137495e-01
 -2.89023854e-01 -2.88197961e-01 -2.82665454e-01 -2.47200243e-01
 -2.05311420e-01 -1.53785485e-01 -1.21094528e-01 -7.02932676e-02
 -3.74715568e-02 -3.00202799e-02  1.59715310e-03  2.31857895e-02
  4.24331834e-02  5.01272289e-02  6.65104988e-02  8.04656921e-02
  1.10733907e-01  1.17826384e-01  1.51036148e-01  1.60022376e-01
  1.65424731e-01  1.70417421e-01  1.89696221e-01  1.96304872e-01
  2.01285085e-01  2.02451118e-01  2.16257584e-01  2.30570701e-01
  2.59198039e-01  2.71338892e-01  2.91370803e-01  2.97200085e-01
  3.15336677e-01  3.43621540e-01  3.61459064e-01  3.65292454e-01
  4.20932905e-01  4.23108546e-01  4.42620249e-01  4.62647406e-01
  4.68162524e-01  4.77654304e-01  5.00570461e-01  5.46178882e-01
  5.63116228e-01  5.92593818e-01  6.10173144e-01  6.29721175e-01
  6.50742152e-01  6.82806236e-01  7.26648015e-01  7.71928097e-01
  8.11606809e-01  8.60959369e-01  9.12824079e-01  1.09412506e+00]
nelec by numeric integration = 146.0000022482392
    CPU time for vxc     38.09 sec, wall time     15.82 sec
E1 = -4116.657959954335  Ecoul = 1905.0965669442269  Exc = -124.79713913314453
cycle= 1 E= -835.265099242617  delta_E= 6.32  |g|= 0.343  |ddm|= 9.35
    CPU time for cycle= 1     38.60 sec, wall time     15.90 sec
  HOMO = -0.0846732587651952  LUMO = 0.00180960955675165
  mo_energy =
[-1.00588014e+01 -1.00521774e+01 -1.00366802e+01 -1.00345103e+01
 -1.00300982e+01 -1.00150121e+01 -1.00019354e+01 -1.00009458e+01
 -9.99927874e+00 -9.99882919e+00 -9.98698959e+00 -9.98674045e+00
 -9.98174064e+00 -9.98160143e+00 -9.97993639e+00 -9.97816516e+00
 -9.97376175e+00 -9.95236483e+00 -9.94299715e+00 -9.92979815e+00
 -9.88066324e+00 -9.87161740e+00 -8.43235114e-01 -8.29959087e-01
 -8.06627080e-01 -7.83417072e-01 -7.42184647e-01 -7.34340078e-01
 -7.18181778e-01 -7.00746116e-01 -6.94008523e-01 -6.47823874e-01
 -6.23315846e-01 -6.14580114e-01 -5.83825307e-01 -5.61518719e-01
 -5.47450972e-01 -5.41676228e-01 -5.24156001e-01 -5.08442876e-01
 -4.82010517e-01 -4.70922383e-01 -4.50303357e-01 -4.41228503e-01
 -4.31230160e-01 -4.23039306e-01 -4.07198762e-01 -3.92285060e-01
 -3.82468236e-01 -3.72041362e-01 -3.67412663e-01 -3.63382639e-01
 -3.56406627e-01 -3.46375340e-01 -3.40290082e-01 -3.24824312e-01
 -3.12262492e-01 -3.06640963e-01 -3.00890717e-01 -2.86244674e-01
 -2.76973269e-01 -2.65973962e-01 -2.60480587e-01 -2.42167051e-01
 -2.25568627e-01 -2.16824381e-01 -2.12183027e-01 -1.95642091e-01
 -1.88711827e-01 -1.72767021e-01 -1.44103677e-01 -1.17027404e-01
 -8.46732588e-02  1.80960956e-03  5.07485507e-02  8.37349493e-02
  1.09799589e-01  1.17252577e-01  1.62481209e-01  1.76849881e-01
  1.77196278e-01  2.08341578e-01  2.34811745e-01  2.45075381e-01
  2.54199563e-01  2.66620582e-01  2.78026036e-01  2.95809234e-01
  3.05551083e-01  3.31301742e-01  3.46941758e-01  3.56162410e-01
  3.60552497e-01  3.69083649e-01  3.84582305e-01  4.01423139e-01
  4.11271949e-01  4.20905945e-01  4.30217838e-01  4.35681553e-01
  4.65850261e-01  4.70329587e-01  4.98643320e-01  5.23633919e-01
  5.52468664e-01  5.57131400e-01  5.92355608e-01  6.04266845e-01
  6.09051285e-01  6.21814327e-01  6.69702701e-01  7.03844933e-01
  7.10396816e-01  7.51141720e-01  7.53264451e-01  7.87995486e-01
  8.30628278e-01  8.60275084e-01  8.93716267e-01  9.55786733e-01
  1.00592313e+00  1.07602998e+00  1.11025135e+00  1.27412237e+00]
nelec by numeric integration = 146.00000244477863
    CPU time for vxc     38.11 sec, wall time     15.76 sec
E1 = -4110.935104329414  Ecoul = 1899.3439371988854  Exc = -124.64347439190159
cycle= 2 E= -835.141208621795  delta_E= 0.124  |g|= 0.671  |ddm|=  1.6
    CPU time for cycle= 2     38.79 sec, wall time     15.87 sec
  HOMO = -0.0949640378027096  LUMO = -0.0109026808405693
  mo_energy =
[-10.03076609 -10.02264386 -10.02202968 -10.01801211 -10.01497549
 -10.01347577 -10.01214132 -10.01176017 -10.00929508 -10.00639483
 -10.00377206 -10.00323491 -10.00199966 -10.00073549  -9.99997678
  -9.99779848  -9.99738752  -9.9898857   -9.98889005  -9.9764759
  -9.96326642  -9.96185581  -0.86375411  -0.83822573  -0.81169299
  -0.7968179   -0.75476241  -0.74122165  -0.72457466  -0.70922598
  -0.70103491  -0.68140992  -0.64696114  -0.61530675  -0.60575485
  -0.5788206   -0.55327573  -0.54278673  -0.52725428  -0.51868192
  -0.48604197  -0.47539265  -0.46415591  -0.44246611  -0.43338855
  -0.42530354  -0.42135032  -0.40442589  -0.39008738  -0.38122286
  -0.37642012  -0.37286698  -0.36523482  -0.3514111   -0.34556208
  -0.33083161  -0.3267076   -0.31728032  -0.30745344  -0.29424933
  -0.29090716  -0.2790069   -0.26196081  -0.24624701  -0.23611669
  -0.22167336  -0.21045622  -0.20848241  -0.19478746  -0.18674095
  -0.18576931  -0.14599477  -0.09496404  -0.01090268   0.02049492
   0.07107466   0.10716755   0.11210178   0.15058805   0.17687663
   0.18141894   0.19562081   0.2148798    0.22355644   0.25497201
   0.26197708   0.27993685   0.291911     0.30233551   0.32058365
   0.32779314   0.33980173   0.34517706   0.35745077   0.36509144
   0.37912499   0.40945968   0.42225664   0.42862538   0.43525749
   0.44350786   0.47275399   0.50089697   0.51612459   0.554999
   0.56010365   0.59069668   0.60691505   0.61056974   0.61910359
   0.65138167   0.69535581   0.71113253   0.75121863   0.76272654
   0.7770872    0.80761654   0.83538614   0.87434855   0.92802543
   0.93353907   1.02073481   1.0763773    1.26254533]
nelec by numeric integration = 146.00000232203317
    CPU time for vxc     37.55 sec, wall time     15.69 sec
E1 = -4111.931540100083  Ecoul = 1900.2049761357582  Exc = -124.65314983149183
cycle= 3 E= -835.286280895181  delta_E= -0.145  |g|= 0.276  |ddm|= 1.43
    CPU time for cycle= 3     38.08 sec, wall time     15.77 sec
  HOMO = -0.105762184788132  LUMO = -0.023176138071584
  mo_energy =
[-10.05090971 -10.04664867 -10.04097248 -10.04093949 -10.03811074
 -10.03569088 -10.03442691 -10.0278167  -10.02013218 -10.01837782
 -10.01711847 -10.01260428 -10.01201621 -10.01046141 -10.010081
 -10.00945552 -10.0048216  -10.00405882  -9.99944294  -9.9926545
  -9.9904275   -9.987313    -0.88069033  -0.85749209  -0.82379278
  -0.80962703  -0.77166699  -0.75919726  -0.72977031  -0.71799794
  -0.70689099  -0.6790531   -0.65019615  -0.63109071  -0.61541866
  -0.58468119  -0.56296835  -0.55129542  -0.53843629  -0.53267521
  -0.49283401  -0.48720441  -0.47120541  -0.45488976  -0.43945186
  -0.43626152  -0.42815064  -0.41786578  -0.39586221  -0.39109909
  -0.38981117  -0.38206737  -0.37237901  -0.36640352  -0.35427217
  -0.33783111  -0.3344228   -0.32605678  -0.31493501  -0.30480778
  -0.30269246  -0.2891765   -0.27294878  -0.26270552  -0.25115666
  -0.23053208  -0.22209382  -0.21261926  -0.19995369  -0.19453121
  -0.19167914  -0.14874215  -0.10576218  -0.02317614   0.01561664
   0.06355828   0.09747595   0.10241239   0.13679236   0.16115323
   0.1682211    0.19176937   0.20647275   0.21297958   0.24197583
   0.25332841   0.28011525   0.28198906   0.29698794   0.30751151
   0.32402898   0.33508958   0.33895648   0.34315754   0.35099802
   0.37782993   0.39435791   0.40882048   0.41991256   0.43175838
   0.44162025   0.46723146   0.49395517   0.50047667   0.54702733
   0.55184618   0.57732747   0.59228815   0.60160572   0.6098256
   0.64120434   0.68460847   0.69776513   0.73031615   0.74116787
   0.7700578    0.79028564   0.82564907   0.86616045   0.9139873
   0.94429866   1.01087285   1.05566344   1.23652933]
nelec by numeric integration = 146.0000023188669
    CPU time for vxc     38.30 sec, wall time     15.86 sec
E1 = -4113.512644151632  Ecoul = 1901.7902666436319  Exc = -124.68291673452741
cycle= 4 E= -835.311861341892  delta_E= -0.0256  |g|= 0.0915  |ddm|= 0.539
    CPU time for cycle= 4     38.70 sec, wall time     15.93 sec
  HOMO = -0.106446835467917  LUMO = -0.0234942631790433
  mo_energy =
[-10.04970785 -10.04480733 -10.03808717 -10.03373545 -10.03318867
 -10.02989606 -10.02967384 -10.02810756 -10.0255409  -10.0240787
 -10.01950566 -10.01851066 -10.01744151 -10.01646847 -10.01201938
 -10.01045099 -10.00691048 -10.00589276 -10.00288234 -10.00284173
  -9.99961432  -9.98974727  -0.87607987  -0.85552147  -0.82459699
  -0.81260195  -0.76976684  -0.7562921   -0.732657    -0.71996414
  -0.71059817  -0.68193697  -0.65196873  -0.63027397  -0.61594114
  -0.58697812  -0.56225833  -0.55204864  -0.53839476  -0.53215613
  -0.49437039  -0.48718908  -0.47020363  -0.45313184  -0.44106197
  -0.43503254  -0.42989471  -0.41759421  -0.39889     -0.3913624
  -0.38850514  -0.38290172  -0.37503738  -0.36607501  -0.35538983
  -0.33719099  -0.33227899  -0.32819388  -0.31758746  -0.30425722
  -0.30390457  -0.28928747  -0.2741505   -0.26196923  -0.25012973
  -0.23244131  -0.22190097  -0.21608411  -0.2034876   -0.19708329
  -0.19388413  -0.15219015  -0.10644684  -0.02349426   0.01282267
   0.06098667   0.09586037   0.09925594   0.13635428   0.16211387
   0.1700813    0.19134511   0.20649007   0.21315206   0.24238957
   0.25061994   0.27881843   0.28093834   0.29615887   0.3071785
   0.3232046    0.33604945   0.33795027   0.34447052   0.35151047
   0.37241427   0.39533668   0.40946138   0.41805683   0.43298164
   0.43333764   0.46527681   0.49245157   0.50312341   0.54758252
   0.54938795   0.57697511   0.59233638   0.59810183   0.60721288
   0.64087942   0.68365624   0.69696062   0.73246111   0.74385044
   0.76647007   0.79225522   0.82538585   0.86249372   0.91763335
   0.93879126   1.01329308   1.06054798   1.23780205]
nelec by numeric integration = 146.00000232822302
    CPU time for vxc     38.21 sec, wall time     15.76 sec
E1 = -4113.332563932533  Ecoul = 1901.60756794474  Exc = -124.683105944591
cycle= 5 E= -835.314669031749  delta_E= -0.00281  |g|= 0.0294  |ddm|= 0.172
    CPU time for cycle= 5     39.03 sec, wall time     15.87 sec
  HOMO = -0.106018440768451  LUMO = -0.0220951994241373
  mo_energy =
[-10.04916168 -10.03997993 -10.03349014 -10.0329177  -10.03258728
 -10.02984355 -10.02788458 -10.02592648 -10.02488345 -10.01861222
 -10.0183725  -10.01559628 -10.01515585 -10.0141373  -10.00945768
 -10.00878419 -10.00811216 -10.00527279 -10.00501817 -10.00153355
  -9.99864834  -9.99176108  -0.87583558  -0.85440924  -0.82262067
  -0.81070185  -0.76864996  -0.75566542  -0.7318873   -0.7184338
  -0.70936285  -0.68099711  -0.65093472  -0.6293648   -0.61506632
  -0.58576489  -0.56198502  -0.55122382  -0.53776248  -0.53088913
  -0.4929332   -0.48646197  -0.46972379  -0.45271952  -0.43965326
  -0.43445628  -0.4292534   -0.41669788  -0.39754304  -0.39063189
  -0.38806732  -0.38205735  -0.37390275  -0.36505656  -0.35423668
  -0.33654677  -0.33304011  -0.32656746  -0.31628728  -0.30409815
  -0.30285636  -0.28876619  -0.27332806  -0.26104391  -0.24940581
  -0.23195075  -0.22148802  -0.21523284  -0.20239914  -0.19580416
  -0.19336893  -0.15164071  -0.10601844  -0.0220952    0.01384126
   0.06208421   0.09644336   0.10043071   0.13740952   0.16316213
   0.17090048   0.19233781   0.20726592   0.21391521   0.24317401
   0.2520293    0.27987368   0.28172136   0.2969985    0.30817548
   0.32375772   0.33716196   0.33816287   0.34464627   0.35246382
   0.37402702   0.39603937   0.41061477   0.41819577   0.43354863
   0.43562819   0.46547355   0.49328073   0.5032909    0.54848794
   0.55029155   0.57763471   0.59312712   0.5997825    0.60821986
   0.6415396    0.68440145   0.69790655   0.73322839   0.74502231
   0.76820923   0.79276077   0.82640153   0.86431092   0.91790404
   0.9405117    1.01379807   1.06067747   1.24110005]
nelec by numeric integration = 146.00000232610435
    CPU time for vxc     37.89 sec, wall time     15.66 sec
E1 = -4113.260401880865  Ecoul = 1901.531839020551  Exc = -124.67982141733786
cycle= 6 E= -835.314951377017  delta_E= -0.000282  |g|= 0.0103  |ddm|= 0.0519
    CPU time for cycle= 6     38.46 sec, wall time     15.74 sec
  HOMO = -0.106121097621571  LUMO = -0.0221206753320808
  mo_energy =
[-10.04875639 -10.03993967 -10.03378804 -10.03319476 -10.0327921
 -10.03091748 -10.02803436 -10.02398554 -10.02340837 -10.01888312
 -10.01776229 -10.0163505  -10.01552676 -10.01527386 -10.00832052
 -10.00821062 -10.00710214 -10.0057535  -10.00372277 -10.00036906
  -9.99910876  -9.98948637  -0.87603219  -0.85424726  -0.82236474
  -0.81046528  -0.76858083  -0.75603061  -0.73115416  -0.71828982
  -0.70893772  -0.68070152  -0.65074587  -0.62938702  -0.61495596
  -0.58549577  -0.5617106   -0.55111198  -0.53752344  -0.53094695
  -0.4927449   -0.48641833  -0.46971504  -0.4524793   -0.43957459
  -0.43429083  -0.42899926  -0.41669372  -0.39729952  -0.39027268
  -0.3881027   -0.38163583  -0.37356427  -0.36488129  -0.35424078
  -0.33681152  -0.33286171  -0.32631539  -0.31623094  -0.30366758
  -0.30273913  -0.28884552  -0.27325007  -0.26131063  -0.249145
  -0.23135598  -0.2210198   -0.21496322  -0.20215672  -0.19564043
  -0.19313627  -0.15125876  -0.1061211   -0.02212068   0.01425818
   0.0624825    0.09696483   0.10082222   0.13782017   0.16283255
   0.1711093    0.19216818   0.20726557   0.21368095   0.24314662
   0.25220732   0.27978825   0.28156227   0.2974296    0.30847741
   0.32415021   0.33731711   0.3382425    0.34457522   0.35241757
   0.37434695   0.39610325   0.41071476   0.41903791   0.43371856
   0.43591009   0.46628937   0.49364795   0.50344814   0.54884701
   0.55059457   0.57803835   0.59379957   0.60009393   0.60853747
   0.64188622   0.68484839   0.69809401   0.73304438   0.74437832
   0.76858855   0.7928014    0.82652979   0.86458429   0.9180511
   0.94038819   1.01369786   1.06062453   1.24113898]
nelec by numeric integration = 146.00000232777776
    CPU time for vxc     38.38 sec, wall time     15.83 sec
E1 = -4113.252942919389  Ecoul = 1901.5237995592563  Exc = -124.67927061759325
cycle= 7 E= -835.314981077091  delta_E= -2.97e-05  |g|= 0.00471  |ddm|= 0.0213
    CPU time for cycle= 7     38.97 sec, wall time     15.92 sec
  HOMO = -0.105980619513765  LUMO = -0.0219336273318821
  mo_energy =
[-10.04898895 -10.04039814 -10.03377862 -10.03368408 -10.03286291
 -10.0305134  -10.02784216 -10.02421943 -10.02353056 -10.01872985
 -10.01817207 -10.01582614 -10.01546272 -10.01545604 -10.00848164
 -10.00842395 -10.00683051 -10.00507049 -10.00376676 -10.00009926
  -9.99840497  -9.98958465  -0.87591588  -0.85433473  -0.82247573
  -0.81059477  -0.76863763  -0.75577291  -0.73113155  -0.7183268
  -0.70893598  -0.68054844  -0.65077287  -0.62922775  -0.61485464
  -0.58557414  -0.56166622  -0.55106018  -0.53751819  -0.5309233
  -0.49280816  -0.48641074  -0.46961979  -0.45251928  -0.43959431
  -0.43425227  -0.42902608  -0.41667441  -0.39729449  -0.39025174
  -0.38804569  -0.38169243  -0.3736019   -0.36494484  -0.35418069
  -0.33670082  -0.33278531  -0.32639422  -0.31628161  -0.30362918
  -0.30281145  -0.28877112  -0.27314388  -0.26111285  -0.24919543
  -0.23133276  -0.22113089  -0.21496753  -0.20210749  -0.19561385
  -0.1930214   -0.15114302  -0.10598062  -0.02193363   0.01439586
   0.06244116   0.09700866   0.10084135   0.13772171   0.16305842
   0.17097622   0.19241441   0.20725883   0.21379427   0.24316125
   0.25217294   0.27974256   0.28163173   0.29739313   0.30841321
   0.32416482   0.33735455   0.33828553   0.3446974    0.35249628
   0.37424674   0.39626053   0.41066277   0.41902832   0.43378082
   0.4357342    0.46629686   0.49365155   0.50352817   0.54877547
   0.55053783   0.57807975   0.59367986   0.60007995   0.6085965
   0.64187308   0.68486514   0.6982221    0.73325964   0.74471639
   0.76848507   0.79286776   0.82648664   0.86449491   0.91801432
   0.94067926   1.01362008   1.0607159    1.24078724]
nelec by numeric integration = 146.00000232740643
    CPU time for vxc     38.27 sec, wall time     15.84 sec
E1 = -4113.254476666426  Ecoul = 1901.525426519727  Exc = -124.67937176924471
cycle= 8 E= -835.314989015308  delta_E= -7.94e-06  |g|= 0.00134  |ddm|= 0.00878
    CPU time for cycle= 8     38.92 sec, wall time     15.94 sec
  HOMO = -0.105984690968893  LUMO = -0.0219281538386939
  mo_energy =
[-10.04891453 -10.04054488 -10.03382568 -10.03364681 -10.03269394
 -10.03039441 -10.02771419 -10.02421886 -10.02358162 -10.01864467
 -10.01804507 -10.0156112  -10.01544078 -10.01534183 -10.00853711
 -10.00843901 -10.00709435 -10.00530727 -10.00377335 -10.00014329
  -9.9986031   -9.98958356  -0.87584423  -0.85430562  -0.82249055
  -0.81059904  -0.76859632  -0.7557641   -0.73117641  -0.71829136
  -0.70896825  -0.68060227  -0.65075388  -0.62923786  -0.61486267
  -0.5855359   -0.56165854  -0.55107255  -0.53751846  -0.53091231
  -0.49281904  -0.4863872   -0.4696084   -0.45253547  -0.43959018
  -0.43426876  -0.42903212  -0.41665042  -0.39729226  -0.390264
  -0.38800297  -0.38172652  -0.37363948  -0.36494763  -0.35418477
  -0.3366372   -0.33275918  -0.32639912  -0.31624645  -0.30361583
  -0.30279127  -0.28874094  -0.27315996  -0.26110013  -0.24918823
  -0.23135002  -0.22115259  -0.21493144  -0.20211625  -0.1955949
  -0.19301644  -0.15118411  -0.10598469  -0.02192815   0.0143685
   0.06247151   0.0970007    0.10082311   0.13770688   0.16306732
   0.17095957   0.19241479   0.20732174   0.21385975   0.24322633
   0.25218212   0.27976889   0.28165857   0.29733993   0.30841971
   0.32413086   0.33737254   0.3383422    0.34474322   0.35253338
   0.374288     0.39620326   0.41065883   0.4189988    0.43377208
   0.43576193   0.46625374   0.49358981   0.50352059   0.54875095
   0.55049954   0.57807423   0.59364575   0.60006374   0.60853788
   0.6419045    0.68487016   0.69821628   0.73327892   0.74473522
   0.76850479   0.79292064   0.82653209   0.86450384   0.91808845
   0.9405838    1.01373913   1.06078652   1.24069445]
nelec by numeric integration = 146.00000232755102
    CPU time for vxc     37.73 sec, wall time     15.66 sec
E1 = -4113.252999006628  Ecoul = 1901.523974678735  Exc = -124.67939811461086
cycle= 9 E= -835.314989541868  delta_E= -5.27e-07  |g|= 0.000646  |ddm|= 0.00268
    CPU time for cycle= 9     38.47 sec, wall time     15.76 sec
  HOMO = -0.105997040749417  LUMO = -0.021930944984951
  mo_energy =
[-10.048892   -10.04049863 -10.03377435 -10.03370363 -10.03275232
 -10.03038808 -10.02780387 -10.02423254 -10.02360237 -10.01872162
 -10.01810968 -10.01567533 -10.01543318 -10.01539491 -10.0084495
 -10.00841046 -10.00704407 -10.00518595 -10.00387911 -10.00020667
  -9.99862546  -9.98961975  -0.87588141  -0.8543146   -0.82249174
  -0.81060092  -0.76861629  -0.75575313  -0.73119972  -0.71830442
  -0.70896241  -0.68062836  -0.65078163  -0.62923227  -0.61487801
  -0.58555801  -0.56168143  -0.55106087  -0.53752782  -0.5309173
  -0.49281816  -0.48639624  -0.46962746  -0.45255187  -0.43958841
  -0.43427103  -0.42904217  -0.41664883  -0.39729896  -0.39028201
  -0.38802714  -0.38173493  -0.37362724  -0.36494631  -0.35418184
  -0.33664097  -0.33278686  -0.32640067  -0.31625303  -0.30364181
  -0.30280029  -0.28874017  -0.27314666  -0.26109381  -0.24920084
  -0.23137039  -0.22115513  -0.21493213  -0.20211323  -0.19561015
  -0.19304252  -0.15120766  -0.10599704  -0.02193094   0.01435045
   0.06245037   0.09698441   0.10082493   0.13769932   0.16307611
   0.17096347   0.19238295   0.20731107   0.21385331   0.24321964
   0.25218353   0.27977561   0.28166767   0.29732806   0.30841135
   0.32411692   0.33735669   0.33832333   0.34471989   0.35251809
   0.37426755   0.39622973   0.41066476   0.41897618   0.43376295
   0.4357497    0.46622297   0.49361131   0.50351147   0.54874905
   0.55051035   0.57806826   0.59364059   0.60006697   0.60856116
   0.6418757    0.68484501   0.69820865   0.73327926   0.74474148
   0.76849158   0.79288818   0.82650912   0.86450229   0.9180594
   0.94055554   1.01369279   1.06073627   1.24072588]
nelec by numeric integration = 146.00000232742173
    CPU time for vxc     38.03 sec, wall time     15.82 sec
E1 = -4113.254593662463  Ecoul = 1901.5256011067718  Exc = -124.67943004374268
cycle= 10 E= -835.314989698798  delta_E= -1.57e-07  |g|= 0.000191  |ddm|= 0.0011
    CPU time for cycle= 10     38.29 sec, wall time     15.87 sec
  HOMO = -0.10600226932037  LUMO = -0.0219372908548693
  mo_energy =
[-10.04892172 -10.04047563 -10.0337532  -10.03372161 -10.03276652
 -10.03041987 -10.02779776 -10.02423109 -10.02358982 -10.01871021
 -10.0180943  -10.01569989 -10.01545449 -10.01536297 -10.00848564
 -10.00844483 -10.00705156 -10.00520906 -10.00387336 -10.0001975
  -9.99865876  -9.98964105  -0.87588853  -0.85432188  -0.82249418
  -0.81060597  -0.76862047  -0.75576473  -0.7311981   -0.71831347
  -0.70896809  -0.68063381  -0.65078901  -0.62923724  -0.61488329
  -0.58556455  -0.56168203  -0.55106989  -0.53752993  -0.53092197
  -0.49282206  -0.48640188  -0.46963207  -0.45254538  -0.43959176
  -0.43427461  -0.42904645  -0.41665477  -0.39730492  -0.39028376
  -0.38803254  -0.38173401  -0.37363294  -0.36495206  -0.35418882
  -0.33664572  -0.33278949  -0.32640482  -0.31625852  -0.30364353
  -0.30280445  -0.2887455   -0.27315373  -0.26110364  -0.24920304
  -0.23137201  -0.22115505  -0.21494573  -0.20212101  -0.19561793
  -0.19304704  -0.15121486  -0.10600227  -0.02193729   0.01434297
   0.06244564   0.09698079   0.10081684   0.1376993    0.16306587
   0.1709661    0.19237767   0.20730212   0.21384764   0.24321303
   0.25217797   0.27977278   0.28166377   0.29733323   0.3084077
   0.32411712   0.33735103   0.33831593   0.34471269   0.3525135
   0.3742618    0.39621989   0.41065876   0.41898012   0.43375768
   0.43574949   0.46622706   0.49360463   0.50350696   0.54874734
   0.55050528   0.5780624    0.59364079   0.60006187   0.60855085
   0.6418714    0.68484109   0.69820328   0.73326828   0.74473491
   0.76848328   0.79288169   0.82649905   0.86448976   0.91804907
   0.94054427   1.01367626   1.06073428   1.24073956]
nelec by numeric integration = 146.00000232743173
    CPU time for vxc     38.22 sec, wall time     15.76 sec
E1 = -4113.254739339357  Ecoul = 1901.525753928871  Exc = -124.67943719858438
cycle= 11 E= -835.314989708435  delta_E= -9.64e-09  |g|= 9.17e-05  |ddm|= 0.000314
    CPU time for cycle= 11     38.80 sec, wall time     15.84 sec
  HOMO = -0.105999040625208  LUMO = -0.0219313273071248
  mo_energy =
[-10.04891818 -10.04048604 -10.03376361 -10.03371276 -10.03275255
 -10.0304007  -10.02779046 -10.02422799 -10.02359676 -10.01871779
 -10.01809968 -10.01569231 -10.01544412 -10.01535852 -10.00847159
 -10.00843107 -10.00704456 -10.00519286 -10.00388399 -10.00019741
  -9.99864501  -9.98961897  -0.87588372  -0.85431927  -0.82249201
  -0.81060287  -0.76861829  -0.75575687  -0.73119658  -0.71830846
  -0.7089638   -0.6806292   -0.65078661  -0.62923101  -0.6148792
  -0.5855617   -0.56167925  -0.55106486  -0.53752777  -0.53091903
  -0.49281905  -0.48639824  -0.4696298   -0.45254461  -0.43958898
  -0.43427142  -0.42904443  -0.416652    -0.39730134  -0.39028145
  -0.38802942  -0.38173334  -0.37362901  -0.3649495   -0.3541844
  -0.33664276  -0.33278988  -0.32640201  -0.31625615  -0.30364167
  -0.30280186  -0.28874203  -0.27314845  -0.26109643  -0.24920263
  -0.23136938  -0.22115462  -0.21494185  -0.20211678  -0.19561376
  -0.19304461  -0.15121049  -0.10599904  -0.02193133   0.01434861
   0.06244926   0.09698454   0.10082248   0.1376986    0.1630735
   0.17096563   0.19238048   0.20730403   0.21384979   0.24321453
   0.25218096   0.27977469   0.2816662    0.29733394   0.30840972
   0.32411743   0.33735358   0.33831847   0.3447158    0.35251763
   0.37426346   0.39622684   0.41065933   0.41898095   0.43376017
   0.43574969   0.46622883   0.49360994   0.50351098   0.54875104
   0.55051022   0.57806692   0.59364402   0.60006633   0.60855743
   0.64187359   0.68484513   0.69820925   0.73327661   0.74474386
   0.76848768   0.79288621   0.82650401   0.864496     0.9180528
   0.94054911   1.01368151   1.06073662   1.24073304]
nelec by numeric integration = 146.00000232743605
    CPU time for vxc     38.07 sec, wall time     15.74 sec
E1 = -4113.254495955759  Ecoul = 1901.5255009181822  Exc = -124.67942757432597
cycle= 12 E= -835.314989711268  delta_E= -2.83e-09  |g|= 3.11e-05  |ddm|= 0.000166
    CPU time for cycle= 12     38.62 sec, wall time     15.82 sec
  HOMO = -0.105996702224585  LUMO = -0.021929072026396
  mo_energy =
[-10.04890784 -10.04048379 -10.03376075 -10.03370898 -10.03274689
 -10.03039817 -10.02778536 -10.0242306  -10.02359009 -10.01870899
 -10.01810055 -10.01569043 -10.01544306 -10.01535708 -10.00847173
 -10.00843086 -10.00704429 -10.0051864  -10.00387733 -10.00018969
  -9.99864353  -9.98962698  -0.8758798   -0.85431505  -0.82249047
  -0.8106015   -0.7686147   -0.75575414  -0.73119396  -0.71830663
  -0.70896351  -0.680628    -0.65078464  -0.62922892  -0.61487659
  -0.5855601   -0.56167744  -0.55106364  -0.53752542  -0.53091624
  -0.492818    -0.48639633  -0.46962736  -0.45254432  -0.43958822
  -0.43426987  -0.42904298  -0.41664946  -0.39729993  -0.39027862
  -0.38802598  -0.38173183  -0.37362852  -0.36494683  -0.35418275
  -0.33664112  -0.33278751  -0.32640083  -0.31625486  -0.30363903
  -0.3028002   -0.28874073  -0.27314712  -0.26109418  -0.24919888
  -0.23136734  -0.22115375  -0.21494051  -0.20211585  -0.19561184
  -0.19304225  -0.15120864  -0.1059967   -0.02192907   0.01435057
   0.06245069   0.09698637   0.10082357   0.137702     0.16307581
   0.17096637   0.1923839    0.20730605   0.21385183   0.24321744
   0.252182     0.2797745    0.28166714   0.29733424   0.3084121
   0.32411912   0.33735602   0.33832025   0.3447187    0.35251976
   0.37426424   0.39622874   0.41066279   0.41898319   0.43376305
   0.43574901   0.4662307    0.49361003   0.5035139    0.54875108
   0.55050988   0.57806953   0.59364449   0.6000671    0.60855815
   0.64187648   0.68484751   0.69821155   0.73328019   0.74474632
   0.76848907   0.79289016   0.82650612   0.86449719   0.91805826
   0.94055084   1.01368393   1.06074239   1.24073518]
nelec by numeric integration = 146.0000023274453
    CPU time for vxc     38.31 sec, wall time     15.74 sec
E1 = -4113.254198020642  Ecoul = 1901.5251988695707  Exc = -124.67942346095745
cycle= 13 E= -835.314989711394  delta_E= -1.26e-10  |g|= 2.55e-05  |ddm|= 7.4e-05
    CPU time for cycle= 13     38.75 sec, wall time     15.82 sec
  HOMO = -0.105997849143025  LUMO = -0.02193014035099
  mo_energy =
[-10.04891184 -10.04048473 -10.03376198 -10.03371165 -10.03275185
 -10.0304005  -10.02778932 -10.02422899 -10.02359348 -10.0187123
 -10.01809854 -10.01569197 -10.01544423 -10.01535678 -10.00847262
 -10.00843196 -10.0070458  -10.00519013 -10.00388027 -10.00019433
  -9.99864328  -9.98962478  -0.87588194  -0.85431727  -0.82249149
  -0.81060259  -0.76861654  -0.75575561  -0.73119562  -0.71830772
  -0.70896395  -0.68062878  -0.65078567  -0.62923023  -0.614878
  -0.58556101  -0.56167872  -0.55106444  -0.53752681  -0.53091769
  -0.49281887  -0.4863976   -0.46962849  -0.45254503  -0.43958856
  -0.43427078  -0.4290438   -0.41665063  -0.39730073  -0.39028033
  -0.38802778  -0.38173274  -0.37362921  -0.36494837  -0.35418371
  -0.33664164  -0.33278847  -0.32640166  -0.31625544  -0.30364058
  -0.30280125  -0.28874145  -0.27314804  -0.26109541  -0.24920074
  -0.23136865  -0.22115421  -0.21494083  -0.20211631  -0.19561283
  -0.19304324  -0.1512097   -0.10599785  -0.02193014   0.01434945
   0.06244983   0.09698514   0.10082255   0.13770031   0.16307455
   0.17096598   0.19238266   0.20730547   0.21385143   0.24321653
   0.25218142   0.27977431   0.28166679   0.29733362   0.30841078
   0.32411824   0.33735487   0.33831962   0.3447174    0.35251849
   0.37426404   0.39622736   0.41066145   0.41898156   0.43376159
   0.43574965   0.46622908   0.49360931   0.50351199   0.54875045
   0.55050935   0.57806794   0.59364366   0.60006647   0.6085573
   0.64187502   0.68484589   0.69821002   0.73327804   0.74474495
   0.76848801   0.79288783   0.82650467   0.86449605   0.91805543
   0.9405503    1.01368248   1.06073944   1.24073421]
nelec by numeric integration = 146.0000023274397
    CPU time for vxc     38.04 sec, wall time     15.77 sec
E1 = -4113.254392514359  Ecoul = 1901.5253969455266  Exc = -124.67942704339788
cycle= 14 E= -835.314989711595  delta_E= -2.01e-10  |g|= 7.09e-06  |ddm|= 3.91e-05
    CPU time for cycle= 14     38.41 sec, wall time     15.83 sec
  HOMO = -0.105998016255245  LUMO = -0.0219302749686589
  mo_energy =
[-10.04891277 -10.04048493 -10.0337622  -10.03371156 -10.03275157
 -10.03040014 -10.02778911 -10.02422983 -10.02359364 -10.01871268
 -10.01810011 -10.01569194 -10.01544466 -10.01535685 -10.00847254
 -10.00843215 -10.00704526 -10.00519007 -10.00388049 -10.00019431
  -9.99864451  -9.98962492  -0.87588198  -0.85431745  -0.82249169
  -0.81060277  -0.76861671  -0.75575556  -0.7311958   -0.71830793
  -0.70896409  -0.68062911  -0.65078598  -0.62923024  -0.61487821
  -0.58556125  -0.56167874  -0.55106448  -0.53752689  -0.53091783
  -0.49281902  -0.48639764  -0.46962869  -0.45254502  -0.43958874
  -0.43427087  -0.42904399  -0.4166507   -0.39730095  -0.39028048
  -0.38802787  -0.38173289  -0.3736293   -0.36494848  -0.35418386
  -0.33664164  -0.33278857  -0.32640184  -0.31625562  -0.30364065
  -0.30280137  -0.28874143  -0.27314804  -0.26109542  -0.24920093
  -0.23136881  -0.22115432  -0.21494101  -0.20211647  -0.19561308
  -0.1930435   -0.15121002  -0.10599802  -0.02193027   0.01434914
   0.06244959   0.096985     0.10082245   0.13770009   0.16307454
   0.17096591   0.1923823    0.20730535   0.21385136   0.24321645
   0.25218127   0.27977428   0.28166681   0.2973335    0.30841062
   0.32411803   0.33735468   0.33831949   0.34471729   0.35251844
   0.37426367   0.3962274    0.41066125   0.41898152   0.43376146
   0.43574918   0.466229     0.49360933   0.503512     0.54875036
   0.55050929   0.57806784   0.59364354   0.60006625   0.60855725
   0.6418748    0.68484576   0.69820997   0.73327805   0.74474504
   0.76848775   0.79288773   0.82650452   0.86449584   0.91805524
   0.9405497    1.0136824    1.06073927   1.24073403]
nelec by numeric integration = 146.00000232744
    CPU time for vxc     37.91 sec, wall time     15.76 sec
E1 = -4113.254397080884  Ecoul = 1901.5254018340834  Exc = -124.67942736545494
cycle= 15 E= -835.31498971162  delta_E= -2.5e-11  |g|= 2.14e-06  |ddm|= 1.05e-05
    CPU time for cycle= 15     38.42 sec, wall time     15.84 sec
  HOMO = -0.105997967055849  LUMO = -0.0219301396129099
  mo_energy =
[-10.04891258 -10.04048494 -10.03376217 -10.03371204 -10.03275137
 -10.03039966 -10.0277891  -10.02422962 -10.02359362 -10.01871307
 -10.01809963 -10.01569268 -10.01544448 -10.01535571 -10.00847254
 -10.00843207 -10.00704568 -10.00518891 -10.00388189 -10.00019426
  -9.99864457  -9.98962505  -0.87588207  -0.85431744  -0.82249168
  -0.81060277  -0.76861676  -0.75575534  -0.73119581  -0.71830793
  -0.70896407  -0.68062918  -0.65078616  -0.62923     -0.61487814
  -0.58556135  -0.56167875  -0.55106441  -0.53752687  -0.53091776
  -0.49281895  -0.48639761  -0.46962876  -0.45254504  -0.43958863
  -0.43427083  -0.42904408  -0.41665064  -0.3973009   -0.39028045
  -0.38802793  -0.38173293  -0.37362925  -0.36494848  -0.35418375
  -0.33664152  -0.33278882  -0.32640182  -0.3162556   -0.3036407
  -0.30280139  -0.28874136  -0.27314789  -0.26109521  -0.24920097
  -0.23136882  -0.22115437  -0.2149411   -0.20211645  -0.1956131
  -0.19304358  -0.15121005  -0.10599797  -0.02193014   0.01434913
   0.06244954   0.09698499   0.10082254   0.13770006   0.16307478
   0.1709659    0.19238221   0.20730523   0.21385139   0.24321647
   0.2521813    0.27977439   0.28166694   0.29733349   0.30841061
   0.32411796   0.33735462   0.33831938   0.3447172    0.35251849
   0.37426358   0.39622757   0.41066125   0.41898153   0.43376142
   0.43574927   0.46622901   0.49360939   0.50351203   0.54875043
   0.55050938   0.5780679    0.59364356   0.60006638   0.60855736
   0.64187468   0.68484573   0.69821012   0.73327832   0.74474543
   0.76848773   0.79288772   0.8265044    0.86449586   0.91805516
   0.94054956   1.01368196   1.06073917   1.24073404]
nelec by numeric integration = 146.00000232743878
    CPU time for vxc     38.12 sec, wall time     15.79 sec
E1 = -4113.254396695658  Ecoul = 1901.525401435115  Exc = -124.67942735169726
Extra cycle  E= -835.314989711605  delta_E= 1.5e-11  |g|= 5.73e-06  |ddm|= 1.36e-05
    CPU time for scf_cycle    664.86 sec, wall time    271.63 sec
    CPU time for SCF    664.86 sec, wall time    271.63 sec
converged SCF energy = -835.314989711605
nelec by numeric integration = 146.00000232743878
    CPU time for vxc     38.44 sec, wall time     15.81 sec
 ** Mulliken pop  **
pop of  0 C 1s            1.99131
pop of  0 C 2s            1.19834
pop of  0 C 2px           0.93779
pop of  0 C 2py           0.92578
pop of  0 C 2pz           0.91007
pop of  1 C 1s            1.99053
pop of  1 C 2s            1.05030
pop of  1 C 2px           1.02576
pop of  1 C 2py           0.97630
pop of  1 C 2pz           0.97884
pop of  2 C 1s            1.99124
pop of  2 C 2s            1.20316
pop of  2 C 2px           0.97147
pop of  2 C 2py           0.94621
pop of  2 C 2pz           0.98018
pop of  3 C 1s            1.99277
pop of  3 C 2s            1.21265
pop of  3 C 2px           0.99806
pop of  3 C 2py           0.95315
pop of  3 C 2pz           0.99891
pop of  4 C 1s            1.99194
pop of  4 C 2s            1.07057
pop of  4 C 2px           1.01021
pop of  4 C 2py           1.02082
pop of  4 C 2pz           0.98685
pop of  5 C 1s            1.99100
pop of  5 C 2s            1.08767
pop of  5 C 2px           0.99009
pop of  5 C 2py           0.97864
pop of  5 C 2pz           1.00064
pop of  6 C 1s            1.99251
pop of  6 C 2s            1.08479
pop of  6 C 2px           0.98917
pop of  6 C 2py           1.04713
pop of  6 C 2pz           0.95053
pop of  7 C 1s            1.99152
pop of  7 C 2s            1.25274
pop of  7 C 2px           0.95386
pop of  7 C 2py           0.96702
pop of  7 C 2pz           0.92559
pop of  8 C 1s            1.99164
pop of  8 C 2s            1.10412
pop of  8 C 2px           0.96335
pop of  8 C 2py           0.95286
pop of  8 C 2pz           0.97638
pop of  9 C 1s            1.99076
pop of  9 C 2s            1.08042
pop of  9 C 2px           1.02064
pop of  9 C 2py           0.94608
pop of  9 C 2pz           1.00592
pop of  10 C 1s           1.99087
pop of  10 C 2s           1.13920
pop of  10 C 2px          1.00980
pop of  10 C 2py          0.93522
pop of  10 C 2pz          0.96873
pop of  11 C 1s           1.99185
pop of  11 C 2s           1.22471
pop of  11 C 2px          0.95048
pop of  11 C 2py          0.91103
pop of  11 C 2pz          0.91546
pop of  12 C 1s           1.99030
pop of  12 C 2s           1.02031
pop of  12 C 2px          1.03298
pop of  12 C 2py          1.04008
pop of  12 C 2pz          0.97061
pop of  13 C 1s           1.99032
pop of  13 C 2s           1.08613
pop of  13 C 2px          1.01286
pop of  13 C 2py          0.97302
pop of  13 C 2pz          0.95508
pop of  14 C 1s           1.99137
pop of  14 C 2s           1.05651
pop of  14 C 2px          1.01527
pop of  14 C 2py          0.99253
pop of  14 C 2pz          0.97226
pop of  15 C 1s           1.99093
pop of  15 C 2s           1.15544
pop of  15 C 2px          1.00314
pop of  15 C 2py          0.94266
pop of  15 C 2pz          1.00415
pop of  16 C 1s           1.99106
pop of  16 C 2s           1.15265
pop of  16 C 2px          1.00234
pop of  16 C 2py          0.94873
pop of  16 C 2pz          0.89424
pop of  17 C 1s           1.99127
pop of  17 C 2s           1.20090
pop of  17 C 2px          0.93637
pop of  17 C 2py          0.91902
pop of  17 C 2pz          0.94796
pop of  18 C 1s           1.99089
pop of  18 C 2s           1.16079
pop of  18 C 2px          1.00513
pop of  18 C 2py          0.91819
pop of  18 C 2pz          0.98828
pop of  19 C 1s           1.99073
pop of  19 C 2s           1.15386
pop of  19 C 2px          0.99604
pop of  19 C 2py          0.96028
pop of  19 C 2pz          0.99016
pop of  20 C 1s           1.99047
pop of  20 C 2s           1.09248
pop of  20 C 2px          1.02423
pop of  20 C 2py          1.00895
pop of  20 C 2pz          1.00063
pop of  21 C 1s           1.99100
pop of  21 C 2s           1.13565
pop of  21 C 2px          0.98336
pop of  21 C 2py          0.96260
pop of  21 C 2pz          0.97415
pop of  22 H 1s           0.90162
pop of  23 H 1s           0.88776
pop of  24 H 1s           0.93223
pop of  25 H 1s           0.92202
pop of  26 H 1s           0.89984
pop of  27 H 1s           0.91839
pop of  28 H 1s           0.93356
pop of  29 H 1s           0.96879
pop of  30 H 1s           0.98398
pop of  31 H 1s           0.89637
pop of  32 H 1s           0.91367
pop of  33 H 1s           0.90860
pop of  34 H 1s           0.89964
pop of  35 H 1s           0.94949
 ** Mulliken atomic charges  **
charge of    0C =      0.03670
charge of    1C =     -0.02173
charge of    2C =     -0.09225
charge of    3C =     -0.15554
charge of    4C =     -0.08039
charge of    5C =     -0.04803
charge of    6C =     -0.06413
charge of    7C =     -0.09073
charge of    8C =      0.01165
charge of    9C =     -0.04382
charge of   10C =     -0.04382
charge of   11C =      0.00647
charge of   12C =     -0.05428
charge of   13C =     -0.01741
charge of   14C =     -0.02793
charge of   15C =     -0.09633
charge of   16C =      0.01098
charge of   17C =      0.00448
charge of   18C =     -0.06329
charge of   19C =     -0.09108
charge of   20C =     -0.11676
charge of   21C =     -0.04677
charge of   22H =      0.09838
charge of   23H =      0.11224
charge of   24H =      0.06777
charge of   25H =      0.07798
charge of   26H =      0.10016
charge of   27H =      0.08161
charge of   28H =      0.06644
charge of   29H =      0.03121
charge of   30H =      0.01602
charge of   31H =      0.10363
charge of   32H =      0.08633
charge of   33H =      0.09140
charge of   34H =      0.10036
charge of   35H =      0.05051
Dipole moment(X, Y, Z, Debye): -0.10678,  0.20669, -0.71449
nelec by numeric integration = 146.00000232743878
    CPU time for vxc     37.91 sec, wall time     15.76 sec
E1 = -4113.254396695658  Ecoul = 1901.5254014351153  Exc = -124.67942735169726
nelec by numeric integration = 146.00000232743878
    CPU time for vxc     37.67 sec, wall time     15.62 sec
E1 = -4113.254396695658  Ecoul = 1901.5254014351158  Exc = -124.67942735169726
