System: uname_result(system='Linux', node='cosmopc18', release='5.15.0-97-generic', version='#107-Ubuntu SMP Wed Feb 7 13:26:48 UTC 2024', machine='x86_64')  Threads 4
Python 3.11.8 (main, Feb 26 2024, 21:39:34) [GCC 11.2.0]
numpy 1.26.4  scipy 1.11.4
Date: Tue Apr  9 11:10:34 2024
PySCF version 2.3.0
PySCF path  /home/saade/miniconda3/envs/tutorial/lib/python3.11/site-packages/pyscf

[ENV] PYSCFAD_BACKEND torch
[CONFIG] conf_file None
[INPUT] verbose = 5
[INPUT] max_memory = 4000 
[INPUT] num. atoms = 36
[INPUT] num. electrons = 146
[INPUT] charge = 0
[INPUT] spin (= nelec alpha-beta = 2S) = 0
[INPUT] symmetry False subgroup None
[INPUT] Mole.unit = angstrom
[INPUT] Symbol           X                Y                Z      unit          X                Y                Z       unit  Magmom
[INPUT]  1 C      0.029407000000   3.633836000000   0.544677000000 AA    0.055571176145   6.866954821585   1.029290356350 Bohr   0.0
[INPUT]  2 C      0.054854000000   3.534359000000  -0.636803000000 AA    0.103659036837   6.678970535892  -1.203383265301 Bohr   0.0
[INPUT]  3 C     -0.118129000000   4.798767000000   1.375881000000 AA   -0.223231457369   9.068355365601   2.600038269993 Bohr   0.0
[INPUT]  4 C     -0.015375000000   2.416057000000   1.376116000000 AA   -0.029054539165   4.565686031338   2.600482355632 Bohr   0.0
[INPUT]  5 C     -0.183073000000   4.883823000000  -1.558414000000 AA   -0.345957830802   9.229087910852  -2.944975648688 Bohr   0.0
[INPUT]  6 C     -0.018483000000   2.507573000000  -1.473720000000 AA   -0.034927807960   4.738626207354  -2.784927184294 Bohr   0.0
[INPUT]  7 C     -0.091663000000   6.021850000000  -0.683120000000 AA   -0.173217965756  11.379647263212  -1.290909710213 Bohr   0.0
[INPUT]  8 C     -0.003530000000   6.058168000000   0.724759000000 AA   -0.006670733220  11.448278336604   1.369596016314 Bohr   0.0
[INPUT]  9 C     -0.018985000000   1.230783000000   0.643334000000 AA   -0.035876450475   2.325842788771   1.215725066621 Bohr   0.0
[INPUT] 10 C      0.033253000000   1.298854000000  -0.710141000000 AA    0.062839062820   2.454478335796  -1.341971999825 Bohr   0.0
[INPUT] 11 C     -0.111993000000   0.087337000000   1.374275000000 AA   -0.211636097868   0.165043010541   2.597003369837 Bohr   0.0
[INPUT] 12 C     -0.074524000000   0.175957000000  -1.400596000000 AA   -0.140829949707   0.332510539700  -2.646742851161 Bohr   0.0
[INPUT] 13 C     -0.051408000000  -1.193237000000   0.749339000000 AA   -0.097147040612  -2.254891131698   1.416045484455 Bohr   0.0
[INPUT] 14 C      0.114818000000  -1.132003000000  -0.803155000000 AA    0.216974574170  -2.139175642186  -1.517742985575 Bohr   0.0
[INPUT] 15 C      0.013290000000  -2.278694000000   1.498168000000 AA    0.025114460195  -4.306107581690   2.831127208587 Bohr   0.0
[INPUT] 16 C      0.054568000000  -2.394283000000  -1.452815000000 AA    0.103118575165  -4.524539134702  -2.745422459660 Bohr   0.0
[INPUT] 17 C      0.098159000000  -3.649456000000   0.733213000000 AA    0.185493626661  -6.896472343651   1.385571760971 Bohr   0.0
[INPUT] 18 C     -0.079133000000  -3.644097000000  -0.674146000000 AA   -0.149539697415  -6.886345301349  -1.273951307971 Bohr   0.0
[INPUT] 19 C     -0.016211000000  -4.905745000000   1.282471000000 AA   -0.030634350205  -9.270514486954   2.423518952697 Bohr   0.0
[INPUT] 20 C      0.121231000000  -4.863833000000  -1.406587000000 AA    0.229093387807  -9.191312285622  -2.658064200374 Bohr   0.0
[INPUT] 21 C      0.040837000000  -6.101277000000   0.941414000000 AA    0.077170745749 -11.529742540108   1.779014629831 Bohr   0.0
[INPUT] 22 C     -0.022609000000  -6.064203000000  -0.653756000000 AA   -0.042724817950 -11.459682833766  -1.235419792291 Bohr   0.0
[INPUT] 23 H      0.008249000000   4.875762000000   2.467162000000 AA    0.015588350802   9.213854828562   4.662260484934 Bohr   0.0
[INPUT] 24 H      0.036991000000   2.716370000000   2.568759000000 AA    0.069902859074   5.133195352985   4.854250990012 Bohr   0.0
[INPUT] 25 H      0.084512000000   4.811694000000  -2.407805000000 AA    0.159704534239   9.092783855213  -4.550092011358 Bohr   0.0
[INPUT] 26 H      0.050876000000   2.404115000000  -2.487236000000 AA    0.096141706313   4.543118921959  -4.700194847159 Bohr   0.0
[INPUT] 27 H     -0.057659000000   7.096457000000  -1.301422000000 AA   -0.108959718616  13.410360184753  -2.459331152484 Bohr   0.0
[INPUT] 28 H      0.174846000000   7.134917000000   1.274725000000 AA    0.330411053976  13.483039051503   2.408881134136 Bohr   0.0
[INPUT] 29 H      0.026226000000   0.167001000000   2.481514000000 AA    0.049559957343   0.315586152528   4.689381834274 Bohr   0.0
[INPUT] 30 H     -0.061657000000  -0.027457000000  -2.556926000000 AA   -0.116514843662  -0.051886210202  -4.831889860780 Bohr   0.0
[INPUT] 31 H      0.011969000000  -2.432037000000   2.539541000000 AA    0.022618131985  -4.595883854809   4.799036972104 Bohr   0.0
[INPUT] 32 H     -0.117902000000  -2.534784000000  -2.554204000000 AA   -0.222802489538  -4.790047544930  -4.826746026269 Bohr   0.0
[INPUT] 33 H     -0.113578000000  -4.817173000000   2.515604000000 AA   -0.214631313776  -9.103137664649   4.753802597860 Bohr   0.0
[INPUT] 34 H      0.135592000000  -4.943988000000  -2.437440000000 AA    0.256231744682  -9.342783283136  -4.606094045060 Bohr   0.0
[INPUT] 35 H      0.105106000000  -7.038240000000   1.208696000000 AA    0.198621554049 -13.300345998959   2.284104407857 Bohr   0.0
[INPUT] 36 H      0.067820000000  -7.126324000000  -1.004851000000 AA    0.128161225768 -13.466800634915  -1.898893185995 Bohr   0.0
[INPUT] ---------------- BASIS SET ---------------- 
[INPUT] l, kappa, [nprim/nctr], expnt,             c_1 c_2 ...
[INPUT] H
[INPUT] 0    0    [3    /1   ]  3.42525091        0.15432897
                                0.62391373        0.53532814
                                0.1688554         0.44463454
[INPUT] C
[INPUT] 0    0    [3    /1   ]  71.616837         0.15432897
                                13.045096         0.53532814
                                3.5305122         0.44463454
[INPUT] 0    0    [3    /1   ]  2.9412494         -0.09996723
                                0.6834831         0.39951283
                                0.2222899         0.70011547
[INPUT] 1    0    [3    /1   ]  2.9412494         0.15591627
                                0.6834831         0.60768372
                                0.2222899         0.39195739

nuclear repulsion = 1500.7453949815
number of shells = 80
number of NR pGTOs = 372
number of NR cGTOs = 124
basis = sto3g
ecp = {}
CPU time:     12990.18
atom C rad-grids = 99, ang-grids = [ 50  50  50  50  50  50  50  50  50  50  50  50  50  50  50  50  50  50
  50  50  50  50  50  50  50  50  50  50  50  50  50  86  86  86  86  86
  86  86  86  86  86  86  86 434 434 434 434 434 434 434 434 434 590 590
 590 590 590 590 590 590 590 590 590 590 590 590 590 590 590 590 590 590
 590 590 590 590 590 590 590 434 434 434 434 434 434 434 434 434 434 434
 434 434 434 434 434 434 434 434 434]
atom H rad-grids = 99, ang-grids = [ 50  50  50  50  50  50  50  50  50  50  50  50  50  50  50  50  50  50
  50  50  50  50  50  50  50  50  50  50  86  86  86  86  86  86  86 434
 434 434 434 434 434 434 434 590 590 590 590 590 590 590 590 590 590 590
 590 590 590 590 590 590 590 590 590 590 590 590 590 590 590 434 434 434
 434 434 434 434 434 434 434 434 434 434 434 434 434 434 434 434 434 434
 434 434 434 434 434 434 434 434 434]
tot_boxes 5270, boxes in each direction [ 8 29 15]
Padding 0 grids
tot grids = 1157832


******** <class 'pyscf.dft.rks.RKS'> ********
method = RKS
initial guess = minao
damping factor = 0
level_shift factor = 0
DIIS = <class 'pyscf.scf.diis.CDIIS'>
diis_start_cycle = 1
diis_space = 8
SCF conv_tol = 1e-10
SCF conv_tol_grad = None
SCF max_cycles = 50
direct_scf = True
direct_scf_tol = 1e-13
chkfile to save SCF result = /home/saade/mlelec/tutorials/tmpyqad0oh0
max_memory 4000 MB (current use 636 MB)
XC library pyscf.dft.libxc version 6.1.0
    S. Lehtola, C. Steigemann, M. J.T. Oliveira, and M. A.L. Marques.,  SoftwareX 7, 1–5 (2018)
XC functionals = b3lypg
    P. J. Stephens, F. J. Devlin, C. F. Chabalowski, and M. J. Frisch.,  J. Phys. Chem. 98, 11623 (1994)
radial grids: 
    Treutler-Ahlrichs [JCP 102, 346 (1995); DOI:10.1063/1.469408] (M4) radial grids
    
becke partition: Becke, JCP 88, 2547 (1988); DOI:10.1063/1.454033
pruning grids: <function nwchem_prune at 0x7f9db5616ca0>
grids dens level: 3
symmetrized grids: False
atomic radii adjust function: <function treutler_atomic_radii_adjust at 0x7f9db5617380>
User specified grid scheme (99, 590)
small_rho_cutoff = 1e-07
Set gradient conv threshold to 1e-05
Initial guess from minao.
nelec by numeric integration = 145.2707112753881
    CPU time for vxc     36.83 sec, wall time     15.48 sec
E1 = -4102.221734053656  Ecoul = 1886.2454180945113  Exc = -125.93519570174995
init E= -841.166116679394
cond(S) = 22.232775423567887
    CPU time for initialize scf     46.56 sec, wall time     17.82 sec
  HOMO = -0.197810462034608  LUMO = -0.151972026449202
  mo_energy =
[-1.01383478e+01 -1.01340808e+01 -1.01253234e+01 -1.01238010e+01
 -1.01134251e+01 -1.01111751e+01 -1.01067293e+01 -1.01045925e+01
 -1.01038612e+01 -1.01038329e+01 -1.01002413e+01 -1.00930142e+01
 -1.00927136e+01 -1.00926911e+01 -1.00914916e+01 -1.00896432e+01
 -1.00886552e+01 -1.00860784e+01 -1.00855387e+01 -1.00747182e+01
 -1.00729601e+01 -1.00654163e+01 -1.11766686e+00 -1.05692517e+00
 -1.03146650e+00 -9.73645599e-01 -9.48618946e-01 -9.19357476e-01
 -9.14161523e-01 -8.79016815e-01 -8.57151628e-01 -8.39138647e-01
 -7.86755887e-01 -7.66370053e-01 -7.29522298e-01 -7.10149974e-01
 -6.87458341e-01 -6.70109826e-01 -6.67979415e-01 -6.30771529e-01
 -5.89079821e-01 -5.79563929e-01 -5.61949543e-01 -5.52424409e-01
 -5.34920486e-01 -5.30304203e-01 -5.08783783e-01 -5.06923647e-01
 -4.91620952e-01 -4.88623906e-01 -4.72086774e-01 -4.68224601e-01
 -4.57461150e-01 -4.44497781e-01 -4.41062791e-01 -4.26430455e-01
 -4.19404737e-01 -4.16580509e-01 -4.15004611e-01 -4.00128010e-01
 -3.91905627e-01 -3.76147628e-01 -3.66616709e-01 -3.58912037e-01
 -3.41931271e-01 -3.24462647e-01 -3.20586388e-01 -2.99785960e-01
 -2.97045152e-01 -2.85339421e-01 -2.67647373e-01 -2.48445896e-01
 -1.97810462e-01 -1.51972026e-01 -9.80921227e-02 -6.98823717e-02
 -6.06329787e-02 -2.27368805e-02 -8.19756004e-04  9.72785827e-03
  4.00366168e-02  9.97813989e-02  1.09997014e-01  1.20244706e-01
  1.40916352e-01  1.54385891e-01  1.78719997e-01  1.82176604e-01
  1.87308698e-01  2.10781400e-01  2.33496798e-01  2.40791532e-01
  2.53260511e-01  2.57095514e-01  2.61405604e-01  2.68908117e-01
  2.89032258e-01  2.91872735e-01  3.12448860e-01  3.21052208e-01
  3.29026708e-01  3.58065058e-01  3.63147335e-01  3.67535514e-01
  3.88132163e-01  4.12551871e-01  4.17660023e-01  4.32044896e-01
  4.66998766e-01  4.75109298e-01  4.92271232e-01  5.06789770e-01
  5.24499804e-01  5.28124598e-01  5.54319568e-01  5.63564436e-01
  5.96177412e-01  6.14369834e-01  6.30694982e-01  6.55212139e-01
  6.95753879e-01  7.49197923e-01  8.16174662e-01  8.74956650e-01]
nelec by numeric integration = 145.99999384019097
    CPU time for vxc     38.59 sec, wall time     15.88 sec
E1 = -4117.990577371498  Ecoul = 1905.9530210759663  Exc = -124.60932540901528
cycle= 1 E= -835.901486723046  delta_E= 5.26  |g|= 0.293  |ddm|= 9.24
    CPU time for cycle= 1     39.02 sec, wall time     15.95 sec
  HOMO = -0.0749325454042012  LUMO = 0.00384336198288896
  mo_energy =
[-1.00368353e+01 -1.00048081e+01 -1.00046303e+01 -1.00039777e+01
 -1.00024584e+01 -1.00018233e+01 -1.00013333e+01 -9.99767290e+00
 -9.99623144e+00 -9.99507614e+00 -9.99492770e+00 -9.99191517e+00
 -9.98256960e+00 -9.97869431e+00 -9.96951541e+00 -9.96944455e+00
 -9.96905031e+00 -9.96675972e+00 -9.94066890e+00 -9.93788815e+00
 -9.91191840e+00 -9.89434844e+00 -8.31976755e-01 -8.09620383e-01
 -7.86578766e-01 -7.53824152e-01 -7.27840880e-01 -7.16594199e-01
 -7.08713275e-01 -6.80289273e-01 -6.76323696e-01 -6.54124462e-01
 -6.08604282e-01 -6.04808194e-01 -5.75474043e-01 -5.57669375e-01
 -5.51458132e-01 -5.37968451e-01 -5.30705820e-01 -4.97745122e-01
 -4.76252553e-01 -4.60681124e-01 -4.45003020e-01 -4.36821401e-01
 -4.25199061e-01 -4.12918229e-01 -4.02448370e-01 -3.95881316e-01
 -3.88738046e-01 -3.68287973e-01 -3.58159848e-01 -3.51818550e-01
 -3.46424571e-01 -3.40508456e-01 -3.27619011e-01 -3.25871818e-01
 -3.20537863e-01 -3.11383149e-01 -3.06743801e-01 -3.04138303e-01
 -2.92307044e-01 -2.68985919e-01 -2.55968403e-01 -2.49029421e-01
 -2.30566927e-01 -2.20095575e-01 -2.06699483e-01 -1.99668627e-01
 -1.68952567e-01 -1.66292724e-01 -1.62604444e-01 -1.30046917e-01
 -7.49325454e-02  3.84336198e-03  5.86617900e-02  7.46933443e-02
  9.97093988e-02  1.32992385e-01  1.58439815e-01  1.72162413e-01
  1.93941415e-01  2.54124078e-01  2.60018865e-01  2.67598086e-01
  2.76506547e-01  3.01642965e-01  3.08472493e-01  3.30907634e-01
  3.52524124e-01  3.57487747e-01  3.68588983e-01  3.82442006e-01
  3.87181194e-01  3.98935090e-01  4.10158069e-01  4.15000762e-01
  4.42182687e-01  4.51293979e-01  4.62346134e-01  4.68479314e-01
  4.82833757e-01  5.15970262e-01  5.20404103e-01  5.32783872e-01
  5.51008708e-01  5.66674800e-01  5.75465050e-01  5.87326416e-01
  6.05367268e-01  6.24053785e-01  6.45716995e-01  6.59510408e-01
  6.78407717e-01  6.83373500e-01  7.08186798e-01  7.29365276e-01
  7.62247679e-01  7.87764425e-01  7.98744046e-01  8.32129319e-01
  8.65352358e-01  9.44926159e-01  9.67139737e-01  1.08133780e+00]
nelec by numeric integration = 145.99999394353802
    CPU time for vxc     37.72 sec, wall time     15.66 sec
E1 = -4112.471477336491  Ecoul = 1900.3319964674847  Exc = -124.4620130079953
cycle= 2 E= -835.856098895501  delta_E= 0.0454  |g|= 0.463  |ddm|= 1.19
    CPU time for cycle= 2     38.43 sec, wall time     15.76 sec
  HOMO = -0.0897056855408052  LUMO = -0.00750189788242985
  mo_energy =
[-1.00218313e+01 -1.00192203e+01 -1.00144338e+01 -1.00105483e+01
 -1.00088581e+01 -1.00088251e+01 -1.00081329e+01 -1.00069221e+01
 -1.00067761e+01 -1.00037236e+01 -1.00036683e+01 -1.00004285e+01
 -1.00000099e+01 -9.99944878e+00 -9.99316027e+00 -9.99217284e+00
 -9.99113564e+00 -9.98679434e+00 -9.98444894e+00 -9.97830575e+00
 -9.96450185e+00 -9.96439469e+00 -8.59358311e-01 -8.17144266e-01
 -8.02446526e-01 -7.62716637e-01 -7.42285726e-01 -7.29643929e-01
 -7.21033399e-01 -6.98215289e-01 -6.82876773e-01 -6.69197994e-01
 -6.34169265e-01 -6.06197461e-01 -5.96743196e-01 -5.73255533e-01
 -5.54083805e-01 -5.43430805e-01 -5.35887337e-01 -5.09935653e-01
 -4.82474864e-01 -4.69392638e-01 -4.60529873e-01 -4.48678832e-01
 -4.35797748e-01 -4.26020000e-01 -4.11402781e-01 -4.05205731e-01
 -3.95662069e-01 -3.75572687e-01 -3.71413267e-01 -3.70449120e-01
 -3.58266628e-01 -3.51416438e-01 -3.37277395e-01 -3.33083951e-01
 -3.25241971e-01 -3.18979973e-01 -3.15518192e-01 -3.07934518e-01
 -3.05261486e-01 -2.82363067e-01 -2.65342392e-01 -2.58004085e-01
 -2.40477945e-01 -2.26316689e-01 -2.20465913e-01 -2.07842172e-01
 -2.05627201e-01 -1.86070788e-01 -1.65139035e-01 -1.48408735e-01
 -8.97056855e-02 -7.50189788e-03  4.04057834e-02  6.94348045e-02
  8.28216651e-02  1.24346786e-01  1.42419788e-01  1.60051662e-01
  1.83722432e-01  2.44430711e-01  2.54629617e-01  2.64182235e-01
  2.85496945e-01  2.92026364e-01  2.95584176e-01  3.26495093e-01
  3.40002040e-01  3.54444790e-01  3.60439061e-01  3.65100397e-01
  3.91829474e-01  3.96720989e-01  4.09022390e-01  4.10628525e-01
  4.30674510e-01  4.38711439e-01  4.52763920e-01  4.59918595e-01
  4.69133548e-01  4.95113580e-01  5.11326307e-01  5.13677777e-01
  5.24397939e-01  5.58093957e-01  5.63287387e-01  5.84359544e-01
  6.07889580e-01  6.16345966e-01  6.39337756e-01  6.51221669e-01
  6.68816612e-01  6.75042198e-01  6.93067191e-01  7.12087616e-01
  7.34188139e-01  7.54774465e-01  7.80040511e-01  8.00607981e-01
  8.49626393e-01  9.02353244e-01  9.63796464e-01  1.03517526e+00]
nelec by numeric integration = 145.99999389947462
    CPU time for vxc     37.88 sec, wall time     15.68 sec
E1 = -4113.7054083330495  Ecoul = 1901.5362134385625  Exc = -124.48677800927715
cycle= 3 E= -835.910577922263  delta_E= -0.0545  |g|= 0.264  |ddm|= 1.15
    CPU time for cycle= 3     38.31 sec, wall time     15.75 sec
  HOMO = -0.100721819639562  LUMO = -0.0237925216650203
  mo_energy =
[-10.03763763 -10.03583795 -10.03314919 -10.02968825 -10.02925052
 -10.023218   -10.01921928 -10.01871489 -10.01859594 -10.01457851
 -10.01397806 -10.01395739 -10.013436   -10.00401185 -10.00230174
 -10.00172183 -10.00111036 -10.00012318  -9.99913417  -9.99622163
  -9.99480446  -9.98290903  -0.8745911   -0.82920899  -0.81341083
  -0.77438351  -0.75563461  -0.7373149   -0.73018024  -0.70534673
  -0.69010695  -0.67606922  -0.63636746  -0.62644289  -0.60406757
  -0.57916893  -0.56205395  -0.54951951  -0.54792924  -0.5129415
  -0.48714317  -0.48100428  -0.4630998   -0.45482818  -0.4409701
  -0.43500021  -0.41905663  -0.41471576  -0.39951838  -0.38824862
  -0.38210852  -0.37792092  -0.36915839  -0.35685166  -0.34527602
  -0.34238861  -0.3346432   -0.33063742  -0.32626874  -0.31807115
  -0.31394895  -0.2890269   -0.27709602  -0.26783663  -0.25255915
  -0.23305123  -0.23040855  -0.21508297  -0.21372049  -0.19292207
  -0.17303858  -0.15583605  -0.10072182  -0.02379252   0.03299438
   0.06303292   0.07241103   0.11398173   0.13368723   0.14871433
   0.17442055   0.23685461   0.24651194   0.25386736   0.27257807
   0.28197963   0.29167699   0.31796564   0.32469956   0.34953845
   0.35986899   0.36387245   0.38363161   0.3892744    0.39923015
   0.4037799    0.42246754   0.43552111   0.44653325   0.45376122
   0.46007436   0.49486416   0.49695599   0.50732881   0.51697266
   0.54610012   0.5548339    0.56920551   0.59865153   0.60848936
   0.62700643   0.64066872   0.6601963    0.66022185   0.68626663
   0.70128803   0.73304889   0.74776698   0.76885139   0.7873978
   0.83259713   0.89060003   0.95520781   1.01755106]
nelec by numeric integration = 145.99999387678025
    CPU time for vxc     38.58 sec, wall time     15.83 sec
E1 = -4114.984255649792  Ecoul = 1902.8083549585995  Exc = -124.50406119273975
cycle= 4 E= -835.934566902431  delta_E= -0.024  |g|= 0.0843  |ddm|= 0.572
    CPU time for cycle= 4     39.00 sec, wall time     15.90 sec
  HOMO = -0.0993663936027689  LUMO = -0.02159856787547
  mo_energy =
[-10.02842308 -10.02796725 -10.02403911 -10.02253916 -10.02231058
 -10.02039282 -10.01939922 -10.01921563 -10.01795991 -10.01480312
 -10.01429967 -10.01351964 -10.01230962 -10.01072562 -10.01050297
 -10.00980068 -10.00956211 -10.00475598 -10.00465214 -10.00245788
  -9.99631604  -9.98645106  -0.86918767  -0.82856435  -0.81355102
  -0.77350891  -0.75351341  -0.73869316  -0.730386    -0.70511253
  -0.69155587  -0.67671288  -0.637476    -0.62221056  -0.60175068
  -0.58049586  -0.56228596  -0.55006737  -0.54712078  -0.51488364
  -0.4872126   -0.47949356  -0.46275016  -0.4540665   -0.44018817
  -0.43385346  -0.41751097  -0.41410269  -0.40214331  -0.3842066
  -0.37959934  -0.3785588   -0.36899063  -0.35826949  -0.34490712
  -0.3425324   -0.33514049  -0.32875409  -0.32720822  -0.31813561
  -0.31554098  -0.29135375  -0.27629843  -0.26820185  -0.25191294
  -0.23545985  -0.23055573  -0.2165724   -0.21178267  -0.19371074
  -0.176106    -0.15649771  -0.09936639  -0.02159857   0.03289055
   0.06062873   0.07239723   0.11344047   0.13314573   0.14858816
   0.17299431   0.23828507   0.24774097   0.25423469   0.27532173
   0.28130945   0.2906145    0.31762314   0.3288797    0.34546367
   0.35800052   0.36195841   0.38503422   0.38799425   0.39979873
   0.4012141    0.42452035   0.43249496   0.44577671   0.45203598
   0.46153858   0.49716031   0.49921995   0.50672536   0.51770847
   0.54683414   0.55265614   0.5704393    0.59693458   0.60642546
   0.62762371   0.64079601   0.65953619   0.66068648   0.684274
   0.70127188   0.7346727    0.7484829    0.76991549   0.79122319
   0.83626589   0.89482717   0.95105952   1.0244391 ]
nelec by numeric integration = 145.9999938891315
    CPU time for vxc     37.85 sec, wall time     15.69 sec
E1 = -4114.779789807383  Ecoul = 1902.6030484937437  Exc = -124.50564917132566
cycle= 5 E= -835.936995503464  delta_E= -0.00243  |g|= 0.0316  |ddm|= 0.19
    CPU time for cycle= 5     38.32 sec, wall time     15.76 sec
  HOMO = -0.0988343038125061  LUMO = -0.0206468646368218
  mo_energy =
[-10.02755807 -10.02343447 -10.02322068 -10.02238254 -10.01932588
 -10.01884132 -10.0185217  -10.0177544  -10.0157496  -10.01515042
 -10.01292831 -10.01093848 -10.00966359 -10.00875014 -10.00761538
 -10.0071121  -10.0045542  -10.00388863 -10.00365689 -10.00206422
  -9.99571256  -9.99102491  -0.86727121  -0.82754417  -0.81203893
  -0.77271147  -0.75233349  -0.73665169  -0.72977937  -0.7038795
  -0.69077955  -0.67601612  -0.63570225  -0.62207948  -0.60049715
  -0.57900928  -0.56135697  -0.54936722  -0.54706452  -0.51348674
  -0.48681828  -0.47878082  -0.46213916  -0.45327163  -0.43918395
  -0.43349593  -0.41647627  -0.41335331  -0.40097641  -0.38346461
  -0.37896749  -0.3777533   -0.36843802  -0.35725283  -0.34385673
  -0.34164513  -0.33424247  -0.32740482  -0.32598853  -0.31674492
  -0.31416367  -0.29027787  -0.27574826  -0.26741663  -0.25093244
  -0.23443654  -0.22927498  -0.21594352  -0.2109002   -0.19261516
  -0.17560245  -0.15564965  -0.0988343   -0.02064686   0.03402323
   0.06164435   0.07340671   0.11440041   0.13477014   0.14960673
   0.17405979   0.23946627   0.24826346   0.25451489   0.2760865
   0.28227409   0.29173222   0.31828311   0.33042212   0.34614474
   0.35940064   0.36351537   0.38495993   0.38838088   0.39996021
   0.40205371   0.42605162   0.43399559   0.44711813   0.45302749
   0.46204305   0.49819984   0.50072134   0.50760754   0.51803901
   0.54862061   0.55390713   0.5716645    0.59769853   0.60736834
   0.62827158   0.64142447   0.66087676   0.66185392   0.68655115
   0.70261576   0.73559509   0.74850614   0.770959     0.79166201
   0.83644092   0.89644674   0.95214945   1.0273788 ]
nelec by numeric integration = 145.99999389092108
    CPU time for vxc     37.49 sec, wall time     15.72 sec
E1 = -4114.663060250131  Ecoul = 1902.4828633285672  Exc = -124.50249077250047
cycle= 6 E= -835.937292712563  delta_E= -0.000297  |g|= 0.015  |ddm|= 0.0688
    CPU time for cycle= 6     37.94 sec, wall time     15.79 sec
  HOMO = -0.0987850807836441  LUMO = -0.0203977453483679
  mo_energy =
[-10.02842649 -10.025615   -10.02360817 -10.02253759 -10.02077133
 -10.01836769 -10.0176278  -10.01754353 -10.01494448 -10.01291253
 -10.01287975 -10.01155491 -10.00932965 -10.00692874 -10.00686652
 -10.00637307 -10.00479631 -10.00469768 -10.00422461 -10.00208452
  -9.99317645  -9.988668    -0.86802364  -0.8271536   -0.81199359
  -0.77232567  -0.75245747  -0.73661316  -0.729463    -0.70380908
  -0.69024489  -0.67567086  -0.63581415  -0.62174435  -0.60081757
  -0.57896793  -0.56117942  -0.54901459  -0.54670531  -0.51340657
  -0.48644531  -0.47860082  -0.46194851  -0.45324768  -0.43926937
  -0.43319863  -0.41671381  -0.41327522  -0.4008157   -0.38366922
  -0.37887896  -0.37770079  -0.36821824  -0.35715888  -0.34375814
  -0.34150215  -0.33403337  -0.3275901   -0.32600477  -0.31673304
  -0.31422253  -0.28999054  -0.27553569  -0.267045    -0.25089978
  -0.23410195  -0.22917783  -0.21546618  -0.21103316  -0.19251605
  -0.1748265   -0.15547193  -0.09878508  -0.02039775   0.03421059
   0.06215163   0.0735976    0.11462768   0.13485147   0.14981001
   0.17444297   0.23945129   0.24856666   0.2549298    0.27581159
   0.28254667   0.29160298   0.31853249   0.32984887   0.34699668
   0.35932925   0.3632422    0.38561638   0.38867781   0.40038991
   0.4024194    0.42554779   0.43429489   0.44718477   0.45330117
   0.46219718   0.498108     0.50039855   0.50785723   0.51825612
   0.54841424   0.55415397   0.57173524   0.5982413    0.60764762
   0.62870059   0.64186405   0.66100772   0.66196426   0.68644621
   0.70261551   0.73570852   0.74916531   0.77109041   0.79175337
   0.83673602   0.89587529   0.95310917   1.0260369 ]
nelec by numeric integration = 145.99999388850017
    CPU time for vxc     37.94 sec, wall time     15.78 sec
E1 = -4114.687204446113  Ecoul = 1902.5063427872024  Exc = -124.50190360259556
cycle= 7 E= -835.937370280005  delta_E= -7.76e-05  |g|= 0.003  |ddm|= 0.0249
    CPU time for cycle= 7     38.42 sec, wall time     15.85 sec
  HOMO = -0.0987846902112871  LUMO = -0.0203527015984635
  mo_energy =
[-10.02836038 -10.02573375 -10.02345704 -10.02259267 -10.02109894
 -10.01823636 -10.01750212 -10.01722645 -10.01537441 -10.01276523
 -10.01275479 -10.01098113 -10.00973601 -10.00738296 -10.0067089
 -10.0065897  -10.00476588 -10.00443665 -10.00405015 -10.00141083
  -9.99339641  -9.98891173  -0.86803103  -0.82711934  -0.81200139
  -0.77232185  -0.75240184  -0.73669043  -0.7293744   -0.7037972
  -0.69023389  -0.67562386  -0.63579924  -0.62176324  -0.60086021
  -0.57892098  -0.56115196  -0.54895756  -0.54666665  -0.51337368
  -0.48641003  -0.47861735  -0.46196802  -0.45323845  -0.43922319
  -0.43322549  -0.41669753  -0.41322007  -0.40078379  -0.3836439
  -0.37884372  -0.37766362  -0.36818824  -0.35709325  -0.34370656
  -0.34153196  -0.3340313   -0.32756777  -0.32604766  -0.31673931
  -0.31422944  -0.28992035  -0.27547211  -0.26704301  -0.25082517
  -0.23408322  -0.22925264  -0.21544875  -0.21110693  -0.19248599
  -0.1747868   -0.15543712  -0.09878469  -0.0203527    0.03424114
   0.06219567   0.07364366   0.11471624   0.13474252   0.14989224
   0.17440385   0.23940158   0.24852316   0.25491363   0.27586754
   0.2825889    0.29151109   0.318603     0.32985945   0.34706167
   0.35923406   0.36323922   0.38563533   0.38872634   0.40043646
   0.40249755   0.42556397   0.43434594   0.44715702   0.45337683
   0.46223605   0.49811047   0.50038429   0.5079424    0.51833715
   0.54842742   0.55426887   0.57179482   0.59826491   0.60777855
   0.62870766   0.64191382   0.66107906   0.66195108   0.68634949
   0.70271576   0.73568282   0.74915632   0.77113774   0.79170809
   0.83678851   0.89589595   0.95303368   1.02590583]
nelec by numeric integration = 145.99999388869614
    CPU time for vxc     38.12 sec, wall time     15.75 sec
E1 = -4114.683823242963  Ecoul = 1902.5029892731216  Exc = -124.50193423346008
cycle= 8 E= -835.9373732218  delta_E= -2.94e-06  |g|= 0.000677  |ddm|= 0.00478
    CPU time for cycle= 8     38.74 sec, wall time     15.84 sec
  HOMO = -0.0988259230621528  LUMO = -0.0203631762958383
  mo_energy =
[-10.02830216 -10.02567239 -10.02339521 -10.02262592 -10.0210338
 -10.01830676 -10.01756871 -10.01729681 -10.01537522 -10.0128313
 -10.01281725 -10.0110818  -10.00968612 -10.00734891 -10.0067308
 -10.00657323 -10.00487547 -10.00457457 -10.00409188 -10.00147654
  -9.99328711  -9.98902721  -0.86802359  -0.82714556  -0.81201027
  -0.77233667  -0.75242096  -0.73669383  -0.72940679  -0.70382218
  -0.69024685  -0.67564908  -0.63582568  -0.62176705  -0.60087649
  -0.57894482  -0.56116064  -0.54897517  -0.546682    -0.5133957
  -0.48643256  -0.4786291   -0.46198255  -0.45325118  -0.43924535
  -0.43323994  -0.41670837  -0.41323962  -0.40079802  -0.38365114
  -0.37885505  -0.37766287  -0.36819161  -0.35711662  -0.34372364
  -0.34153817  -0.3340447   -0.32757765  -0.32604879  -0.31674536
  -0.31423213  -0.28995055  -0.27549833  -0.26705621  -0.25085472
  -0.23408783  -0.22924656  -0.21545065  -0.21111477  -0.19251494
  -0.1747953   -0.15547324  -0.09882592  -0.02036318   0.034215
   0.06217549   0.07362856   0.114699     0.13474688   0.14985691
   0.17439373   0.23939692   0.24852303   0.25492232   0.27586375
   0.28256369   0.29152489   0.31858164   0.32986061   0.34704179
   0.35925149   0.36322946   0.38563201   0.38871499   0.40042848
   0.40248164   0.42554722   0.43430973   0.44713957   0.4533489
   0.46221749   0.49808699   0.50037565   0.50791799   0.51832066
   0.54841171   0.55422517   0.57177077   0.59825511   0.60774781
   0.62870061   0.64189436   0.66105131   0.66194347   0.68634369
   0.70268192   0.73564741   0.74911471   0.77111858   0.79168862
   0.8367703    0.89589367   0.95302417   1.02592949]
nelec by numeric integration = 145.99999388874184
    CPU time for vxc     38.08 sec, wall time     15.79 sec
E1 = -4114.685470718544  Ecoul = 1902.504679079151  Exc = -124.50197670545046
cycle= 9 E= -835.937373363342  delta_E= -1.42e-07  |g|= 0.000307  |ddm|= 0.00121
    CPU time for cycle= 9     38.46 sec, wall time     15.85 sec
  HOMO = -0.0988284380488868  LUMO = -0.020358695311676
  mo_energy =
[-10.02833361 -10.02569862 -10.02345468 -10.02261187 -10.02106004
 -10.01828681 -10.01755172 -10.01729831 -10.01534059 -10.01283202
 -10.01278656 -10.01110401 -10.00971439 -10.00735868 -10.00675114
 -10.00656694 -10.00485136 -10.00452629 -10.00414466 -10.00149266
  -9.9933341   -9.98898584  -0.86804243  -0.82714401  -0.81201661
  -0.77234423  -0.75242094  -0.73670426  -0.72940355  -0.70382165
  -0.69025222  -0.67564969  -0.63583139  -0.62176893  -0.60088434
  -0.57894699  -0.56116513  -0.5489771   -0.54668026  -0.51339876
  -0.48643699  -0.47863266  -0.46198725  -0.45325764  -0.43925072
  -0.43323814  -0.41671366  -0.41323971  -0.40079423  -0.38366216
  -0.37885864  -0.37766726  -0.36819297  -0.35711302  -0.34372237
  -0.34154237  -0.33404241  -0.32758181  -0.32605578  -0.31675001
  -0.31423434  -0.28994686  -0.27549512  -0.26706152  -0.25085046
  -0.23408869  -0.22925944  -0.21545011  -0.21111959  -0.19251559
  -0.17480106  -0.15547421  -0.09882844  -0.0203587    0.03421478
   0.06217202   0.07362451   0.1146968    0.13473607   0.14986349
   0.17438829   0.23939202   0.24852135   0.25492144   0.27587068
   0.28256582   0.29152013   0.31858804   0.32984778   0.34703736
   0.35924895   0.36323251   0.38562805   0.38872304   0.40042807
   0.40248293   0.42553943   0.43431286   0.44713743   0.453352
   0.46221648   0.49807791   0.50036722   0.5079092    0.51831265
   0.54840422   0.55423215   0.57177578   0.59824817   0.60774518
   0.62869141   0.64189079   0.66104894   0.66193819   0.68633131
   0.70268435   0.7356455    0.74911963   0.77111388   0.79168276
   0.83676382   0.8958725    0.95302559   1.02590873]
nelec by numeric integration = 145.99999388874534
    CPU time for vxc     37.97 sec, wall time     15.72 sec
E1 = -4114.685735694715  Ecoul = 1902.5049562467188  Exc = -124.50198892666822
cycle= 10 E= -835.937373393163  delta_E= -2.98e-08  |g|= 9.29e-05  |ddm|= 0.000528
    CPU time for cycle= 10     38.47 sec, wall time     15.80 sec
  HOMO = -0.0988287880302606  LUMO = -0.0203599736191438
  mo_energy =
[-10.02834138 -10.0256994  -10.0234563  -10.02260908 -10.02106061
 -10.01829531 -10.01756034 -10.01730495 -10.0153434  -10.01281518
 -10.01280011 -10.01107969 -10.00971162 -10.00734598 -10.0067477
 -10.00656666 -10.00484892 -10.00455249 -10.00412878 -10.00151143
  -9.99333862  -9.98900072  -0.86804258  -0.82714676  -0.81201823
  -0.77234219  -0.75242368  -0.7367017   -0.72940669  -0.70382386
  -0.69025413  -0.67565213  -0.635832    -0.62176941  -0.60088182
  -0.5789496   -0.56116572  -0.5489793   -0.54668143  -0.51339971
  -0.48643667  -0.47863214  -0.46198722  -0.45325634  -0.43924949
  -0.43323971  -0.41671146  -0.41324027  -0.40079692  -0.38366184
  -0.37886045  -0.37767026  -0.3681952   -0.35711582  -0.34372488
  -0.34154279  -0.3340442   -0.32758285  -0.32605381  -0.31675047
  -0.3142349   -0.28995019  -0.27549683  -0.26706046  -0.25085394
  -0.23409231  -0.22925734  -0.21545402  -0.21112004  -0.19251678
  -0.17480476  -0.15547541  -0.09882879  -0.02035997   0.03421484
   0.06217037   0.0736228    0.11469253   0.13473772   0.14985962
   0.17438921   0.23939099   0.24851879   0.25491909   0.27586813
   0.28256324   0.29152179   0.31858491   0.3298479    0.34703512
   0.35925023   0.36323194   0.38562758   0.3887183    0.40042553
   0.40247818   0.42554326   0.43431048   0.44713928   0.45334814
   0.46221475   0.49808049   0.50036975   0.50790809   0.51831167
   0.54840886   0.5542273    0.57177242   0.59824677   0.60774145
   0.6286917    0.64188839   0.66104666   0.6619381    0.68633594
   0.70267956   0.73564392   0.74911642   0.77111237   0.7916822
   0.83676409   0.8958742    0.95302524   1.02590929]
nelec by numeric integration = 145.9999938887334
    CPU time for vxc     38.08 sec, wall time     15.72 sec
E1 = -4114.6858253779155  Ecoul = 1902.5050465553304  Exc = -124.5019895543067
cycle= 11 E= -835.93737339539  delta_E= -2.23e-09  |g|= 5.8e-05  |ddm|= 0.000207
    CPU time for cycle= 11     38.73 sec, wall time     15.82 sec
  HOMO = -0.0988283501997798  LUMO = -0.0203582342676908
  mo_energy =
[-10.02833166 -10.02569734 -10.02344967 -10.02261171 -10.02105803
 -10.01829264 -10.01755759 -10.01730133 -10.01534755 -10.0128211
 -10.01279214 -10.01108653 -10.00970811 -10.00734971 -10.00674721
 -10.00656362 -10.00485579 -10.00454404 -10.00413343 -10.00150052
  -9.99333561  -9.98899402  -0.86803989  -0.82714548  -0.81201665
  -0.77234213  -0.75242144  -0.73670157  -0.72940506  -0.70382225
  -0.6902526   -0.6756502   -0.63583095  -0.62176764  -0.60088134
  -0.57894783  -0.56116439  -0.54897777  -0.54668078  -0.5133986
  -0.48643566  -0.47863134  -0.46198658  -0.45325554  -0.43924891
  -0.43323882  -0.41671122  -0.41323982  -0.4007959   -0.38366001
  -0.37885896  -0.37766922  -0.36819377  -0.35711469  -0.34372346
  -0.34154183  -0.33404307  -0.32758079  -0.32605364  -0.31674952
  -0.31423393  -0.28994885  -0.27549616  -0.26706022  -0.25085213
  -0.23409104  -0.22925669  -0.21545341  -0.21111852  -0.19251583
  -0.17480254  -0.15547416  -0.09882835  -0.02035823   0.03421622
   0.06217166   0.07362478   0.11469513   0.13473817   0.14986124
   0.17438968   0.23939217   0.24851955   0.2549191    0.27586968
   0.28256423   0.29152194   0.3185855    0.32984973   0.34703688
   0.35924925   0.36323155   0.3856292    0.38871893   0.40042687
   0.40247996   0.42554262   0.43431133   0.44713913   0.45334966
   0.4622161    0.4980811    0.50037062   0.50791013   0.51831314
   0.54840867   0.55422899   0.57177465   0.59824907   0.60774429
   0.62869337   0.64189035   0.66104882   0.66193992   0.68633553
   0.70268264   0.73564537   0.7491183    0.77111368   0.7916843
   0.8367652    0.89587597   0.95302463   1.02591095]
nelec by numeric integration = 145.9999938887318
    CPU time for vxc     37.82 sec, wall time     15.65 sec
E1 = -4114.685690652827  Ecoul = 1902.504909282004  Exc = -124.50198700725802
cycle= 12 E= -835.93737339658  delta_E= -1.19e-09  |g|= 1.05e-05  |ddm|= 9.46e-05
    CPU time for cycle= 12     38.09 sec, wall time     15.70 sec
  HOMO = -0.0988277786385197  LUMO = -0.0203573391617444
  mo_energy =
[-10.02833235 -10.02569543 -10.02345027 -10.02260904 -10.02105785
 -10.01829065 -10.01755547 -10.01730025 -10.01534437 -10.01281637
 -10.01279195 -10.01108651 -10.00971016 -10.00735126 -10.00674813
 -10.00656195 -10.00485301 -10.00454357 -10.00413387 -10.00149919
  -9.99333378  -9.98899515  -0.86803968  -0.8271441   -0.81201584
  -0.77234126  -0.75242099  -0.73670155  -0.72940414  -0.70382198
  -0.69025156  -0.67564972  -0.63583081  -0.62176671  -0.6008817
  -0.57894747  -0.56116402  -0.54897718  -0.5466794   -0.51339842
  -0.48643532  -0.47863078  -0.46198625  -0.45325552  -0.43924866
  -0.43323815  -0.41671123  -0.41323899  -0.40079543  -0.3836597
  -0.37885823  -0.3776684   -0.36819302  -0.35711385  -0.34372255
  -0.34154155  -0.33404248  -0.32758048  -0.32605366  -0.31674904
  -0.31423381  -0.28994794  -0.27549493  -0.2670595   -0.25085127
  -0.23409033  -0.22925654  -0.21545235  -0.21111868  -0.19251543
  -0.17480126  -0.15547392  -0.09882778  -0.02035734   0.03421638
   0.06217242   0.07362533   0.11469593   0.1347382    0.14986236
   0.17438999   0.2393925    0.2485203    0.25492043   0.27586991
   0.28256551   0.29152124   0.31858663   0.32985008   0.34703776
   0.35924881   0.36323163   0.38562984   0.3887202    0.40042796
   0.40248085   0.4255425    0.43431207   0.44713914   0.45335053
   0.46221676   0.49808124   0.50037065   0.50791042   0.51831389
   0.5484086    0.5542303    0.57177543   0.59824951   0.60774482
   0.62869391   0.64189127   0.66104926   0.66194008   0.6863349
   0.70268323   0.73564578   0.74911914   0.77111507   0.79168439
   0.83676664   0.89587619   0.95302572   1.02591139]
nelec by numeric integration = 145.99999388873636
    CPU time for vxc     38.01 sec, wall time     15.70 sec
E1 = -4114.685621272311  Ecoul = 1902.5048390308827  Exc = -124.50198613667716
cycle= 13 E= -835.937373396604  delta_E= -2.46e-11  |g|= 7.97e-06  |ddm|= 2.88e-05
    CPU time for cycle= 13     38.55 sec, wall time     15.78 sec
  HOMO = -0.0988286809271182  LUMO = -0.0203584150681955
  mo_energy =
[-10.02833294 -10.02569835 -10.02345078 -10.02261171 -10.02105946
 -10.01829308 -10.0175581  -10.01730141 -10.01534747 -10.01282216
 -10.01279325 -10.01108764 -10.00970862 -10.00734958 -10.00674542
 -10.00656408 -10.00485494 -10.00454302 -10.00413311 -10.00150053
  -9.99333456  -9.98899495  -0.86804068  -0.82714566  -0.81201692
  -0.77234235  -0.75242167  -0.7367019   -0.72940512  -0.70382244
  -0.69025285  -0.67565038  -0.63583116  -0.62176809  -0.600882
  -0.57894797  -0.56116455  -0.54897777  -0.5466809   -0.51339874
  -0.48643577  -0.47863163  -0.46198681  -0.4532558   -0.43924919
  -0.43323904  -0.41671154  -0.41324003  -0.40079583  -0.38366049
  -0.37885921  -0.37766906  -0.36819378  -0.35711478  -0.34372366
  -0.34154214  -0.33404327  -0.32758129  -0.32605402  -0.31674972
  -0.31423411  -0.28994886  -0.27549623  -0.26706032  -0.2508522
  -0.2340908   -0.22925709  -0.21545295  -0.21111906  -0.19251596
  -0.17480261  -0.15547448  -0.09882868  -0.02035842   0.0342159
   0.06217158   0.07362452   0.11469504   0.13473781   0.14986124
   0.17438952   0.23939182   0.24851947   0.25491925   0.27586937
   0.28256405   0.2915216    0.31858567   0.32984912   0.34703697
   0.35924932   0.36323155   0.38562896   0.38871928   0.40042681
   0.40248022   0.42554201   0.43431135   0.44713885   0.45334958
   0.46221601   0.49808071   0.50037006   0.50790996   0.51831298
   0.54840815   0.55422902   0.57177446   0.59824885   0.60774423
   0.62869302   0.64189018   0.6610486    0.6619395    0.68633503
   0.70268246   0.73564494   0.74911796   0.77111334   0.7916837
   0.83676483   0.89587538   0.95302522   1.02590988]
nelec by numeric integration = 145.99999388873326
    CPU time for vxc     38.32 sec, wall time     15.88 sec
E1 = -4114.6857382212065  Ecoul = 1902.5049574913464  Exc = -124.50198764817691
Extra cycle  E= -835.937373396536  delta_E= 6.87e-11  |g|= 1.58e-05  |ddm|= 3.71e-05
    CPU time for scf_cycle    585.95 sec, wall time    239.35 sec
    CPU time for SCF    585.95 sec, wall time    239.35 sec
converged SCF energy = -835.937373396536
nelec by numeric integration = 145.99999388873326
    CPU time for vxc     37.61 sec, wall time     15.59 sec
 ** Mulliken pop  **
pop of  0 C 1s            1.99063
pop of  0 C 2s            1.05512
pop of  0 C 2px           1.02470
pop of  0 C 2py           0.96984
pop of  0 C 2pz           0.99987
pop of  1 C 1s            1.99103
pop of  1 C 2s            1.04935
pop of  1 C 2px           0.98982
pop of  1 C 2py           0.98361
pop of  1 C 2pz           1.00090
pop of  2 C 1s            1.99088
pop of  2 C 2s            1.17552
pop of  2 C 2px           0.98873
pop of  2 C 2py           0.93493
pop of  2 C 2pz           0.96933
pop of  3 C 1s            1.99132
pop of  3 C 2s            1.20585
pop of  3 C 2px           0.94309
pop of  3 C 2py           0.93327
pop of  3 C 2pz           0.94005
pop of  4 C 1s            1.99145
pop of  4 C 2s            1.18442
pop of  4 C 2px           1.02451
pop of  4 C 2py           0.92864
pop of  4 C 2pz           0.99405
pop of  5 C 1s            1.99064
pop of  5 C 2s            1.11910
pop of  5 C 2px           1.02072
pop of  5 C 2py           0.94810
pop of  5 C 2pz           0.99961
pop of  6 C 1s            1.99118
pop of  6 C 2s            1.19119
pop of  6 C 2px           0.96079
pop of  6 C 2py           0.95730
pop of  6 C 2pz           0.94358
pop of  7 C 1s            1.99103
pop of  7 C 2s            1.18811
pop of  7 C 2px           0.98947
pop of  7 C 2py           0.95755
pop of  7 C 2pz           0.93882
pop of  8 C 1s            1.99024
pop of  8 C 2s            1.07848
pop of  8 C 2px           1.01920
pop of  8 C 2py           0.97508
pop of  8 C 2pz           0.96437
pop of  9 C 1s            1.99029
pop of  9 C 2s            1.08179
pop of  9 C 2px           0.99945
pop of  9 C 2py           0.98312
pop of  9 C 2pz           0.96274
pop of  10 C 1s           1.99083
pop of  10 C 2s           1.15597
pop of  10 C 2px          0.98968
pop of  10 C 2py          0.94099
pop of  10 C 2pz          0.97890
pop of  11 C 1s           1.99098
pop of  11 C 2s           1.15321
pop of  11 C 2px          0.99642
pop of  11 C 2py          0.94160
pop of  11 C 2pz          0.97310
pop of  12 C 1s           1.99070
pop of  12 C 2s           1.13192
pop of  12 C 2px          0.98776
pop of  12 C 2py          0.95600
pop of  12 C 2pz          0.94806
pop of  13 C 1s           1.99095
pop of  13 C 2s           1.17328
pop of  13 C 2px          0.98931
pop of  13 C 2py          0.94354
pop of  13 C 2pz          0.90384
pop of  14 C 1s           1.99102
pop of  14 C 2s           1.15775
pop of  14 C 2px          1.00445
pop of  14 C 2py          0.93548
pop of  14 C 2pz          0.98887
pop of  15 C 1s           1.99102
pop of  15 C 2s           1.18997
pop of  15 C 2px          0.98466
pop of  15 C 2py          0.93721
pop of  15 C 2pz          0.96488
pop of  16 C 1s           1.99074
pop of  16 C 2s           1.15210
pop of  16 C 2px          0.99820
pop of  16 C 2py          0.93045
pop of  16 C 2pz          0.93400
pop of  17 C 1s           1.99074
pop of  17 C 2s           1.15689
pop of  17 C 2px          0.97301
pop of  17 C 2py          0.93332
pop of  17 C 2pz          0.94638
pop of  18 C 1s           1.99100
pop of  18 C 2s           1.09330
pop of  18 C 2px          0.99097
pop of  18 C 2py          0.98776
pop of  18 C 2pz          0.98526
pop of  19 C 1s           1.99076
pop of  19 C 2s           1.16094
pop of  19 C 2px          1.02763
pop of  19 C 2py          0.93661
pop of  19 C 2pz          0.99299
pop of  20 C 1s           1.99114
pop of  20 C 2s           1.10289
pop of  20 C 2px          1.02168
pop of  20 C 2py          1.03883
pop of  20 C 2pz          0.96491
pop of  21 C 1s           1.99147
pop of  21 C 2s           1.22529
pop of  21 C 2px          0.94581
pop of  21 C 2py          0.95617
pop of  21 C 2pz          0.93368
pop of  22 H 1s           0.91828
pop of  23 H 1s           0.92815
pop of  24 H 1s           0.89267
pop of  25 H 1s           0.89882
pop of  26 H 1s           0.95642
pop of  27 H 1s           0.93154
pop of  28 H 1s           0.92302
pop of  29 H 1s           0.93152
pop of  30 H 1s           0.90371
pop of  31 H 1s           0.92791
pop of  32 H 1s           0.96728
pop of  33 H 1s           0.90930
pop of  34 H 1s           0.88381
pop of  35 H 1s           0.93738
 ** Mulliken atomic charges  **
charge of    0C =     -0.04015
charge of    1C =     -0.01472
charge of    2C =     -0.05939
charge of    3C =     -0.01358
charge of    4C =     -0.12307
charge of    5C =     -0.07816
charge of    6C =     -0.04404
charge of    7C =     -0.06497
charge of    8C =     -0.02738
charge of    9C =     -0.01740
charge of   10C =     -0.05636
charge of   11C =     -0.05532
charge of   12C =     -0.01444
charge of   13C =     -0.00093
charge of   14C =     -0.07758
charge of   15C =     -0.06775
charge of   16C =     -0.00548
charge of   17C =     -0.00034
charge of   18C =     -0.04829
charge of   19C =     -0.10894
charge of   20C =     -0.11946
charge of   21C =     -0.05243
charge of   22H =      0.08172
charge of   23H =      0.07185
charge of   24H =      0.10733
charge of   25H =      0.10118
charge of   26H =      0.04358
charge of   27H =      0.06846
charge of   28H =      0.07698
charge of   29H =      0.06848
charge of   30H =      0.09629
charge of   31H =      0.07209
charge of   32H =      0.03272
charge of   33H =      0.09070
charge of   34H =      0.11619
charge of   35H =      0.06262
Dipole moment(X, Y, Z, Debye):  0.35382,  0.13876,  0.49153
nelec by numeric integration = 145.99999388873326
    CPU time for vxc     37.66 sec, wall time     15.71 sec
E1 = -4114.6857382212065  Ecoul = 1902.5049574913462  Exc = -124.50198764817691
nelec by numeric integration = 145.99999388873326
    CPU time for vxc     37.76 sec, wall time     15.69 sec
E1 = -4114.6857382212065  Ecoul = 1902.5049574913464  Exc = -124.50198764817691
