System: uname_result(system='Linux', node='cosmopc18', release='5.15.0-97-generic', version='#107-Ubuntu SMP Wed Feb 7 13:26:48 UTC 2024', machine='x86_64')  Threads 4
Python 3.11.8 (main, Feb 26 2024, 21:39:34) [GCC 11.2.0]
numpy 1.26.4  scipy 1.11.4
Date: Tue Apr  9 12:16:18 2024
PySCF version 2.3.0
PySCF path  /home/saade/miniconda3/envs/tutorial/lib/python3.11/site-packages/pyscf

[ENV] PYSCFAD_BACKEND torch
[CONFIG] conf_file None
[INPUT] verbose = 5
[INPUT] max_memory = 4000 
[INPUT] num. atoms = 36
[INPUT] num. electrons = 146
[INPUT] charge = 0
[INPUT] spin (= nelec alpha-beta = 2S) = 0
[INPUT] symmetry False subgroup None
[INPUT] Mole.unit = angstrom
[INPUT] Symbol           X                Y                Z      unit          X                Y                Z       unit  Magmom
[INPUT]  1 C     -0.075966000000   3.734321000000   0.764625000000 AA   -0.143554934779   7.056843951212   1.444931837996 Bohr   0.0
[INPUT]  2 C      0.046006000000   3.818175000000  -0.837941000000 AA    0.086938740087   7.215305045661  -1.583478998544 Bohr   0.0
[INPUT]  3 C     -0.138385000000   5.005059000000   1.366520000000 AA   -0.261509749748   9.458190747289   2.582348543741 Bohr   0.0
[INPUT]  4 C     -0.067729000000   2.509912000000   1.578668000000 AA   -0.127989260691   4.743046276759   2.983250161615 Bohr   0.0
[INPUT]  5 C      0.090165000000   4.985040000000  -1.452528000000 AA    0.170387156021   9.420360320002  -2.744880108262 Bohr   0.0
[INPUT]  6 C     -0.067562000000   2.601869000000  -1.371876000000 AA   -0.127673676428   4.916819821996  -2.592469916864 Bohr   0.0
[INPUT]  7 C      0.026104000000   6.235746000000  -0.720635000000 AA    0.049329410756  11.783852122352  -1.361802785776 Bohr   0.0
[INPUT]  8 C     -0.078543000000   5.966725000000   0.815707000000 AA   -0.148424759002  11.275476110595   1.541462827891 Bohr   0.0
[INPUT]  9 C      0.140234000000   1.105793000000   0.773998000000 AA    0.265003853352   2.089645920461   1.462644240961 Bohr   0.0
[INPUT] 10 C     -0.168676000000   1.191903000000  -0.648780000000 AA   -0.318751443787   2.252370237047  -1.226016515095 Bohr   0.0
[INPUT] 11 C      0.026558000000   0.066847000000   1.425172000000 AA    0.050187346416   0.126322522249   2.693184760399 Bohr   0.0
[INPUT] 12 C      0.158768000000  -0.119260000000  -1.246258000000 AA    0.300028037345  -0.225368737616  -2.355086300548 Bohr   0.0
[INPUT] 13 C     -0.112822000000  -1.216985000000   0.567323000000 AA   -0.213202680826  -2.299768347704   1.072085094167 Bohr   0.0
[INPUT] 14 C      0.052538000000  -1.264233000000  -0.730012000000 AA    0.099282431132  -2.389054127637  -1.379522747646 Bohr   0.0
[INPUT] 15 C      0.001397000000  -2.371819000000   1.526207000000 AA    0.002639947396  -4.482088327040   2.884113239394 Bohr   0.0
[INPUT] 16 C      0.071858000000  -2.703534000000  -1.301146000000 AA    0.135791939859  -5.108938828450  -2.458809588073 Bohr   0.0
[INPUT] 17 C     -0.005899000000  -3.688409000000   0.768510000000 AA   -0.011147494409  -6.970082845381   1.452273423989 Bohr   0.0
[INPUT] 18 C      0.108009000000  -3.836074000000  -0.849350000000 AA    0.204107428988  -7.249129253565  -1.605038883899 Bohr   0.0
[INPUT] 19 C     -0.210419000000  -4.885198000000   1.283256000000 AA   -0.397634281405  -9.231686284273   2.425002387705 Bohr   0.0
[INPUT] 20 C      0.080041000000  -4.897666000000  -1.435762000000 AA    0.151255568736  -9.255247389594  -2.713196960058 Bohr   0.0
[INPUT] 21 C      0.046347000000  -5.969174000000   0.607739000000 AA    0.087583136695 -11.280104049875   1.148460265217 Bohr   0.0
[INPUT] 22 C      0.177067000000  -6.336906000000  -0.643260000000 AA    0.334608135698 -11.975016817113  -1.215585226888 Bohr   0.0
[INPUT] 23 H     -0.004133000000   4.947350000000   2.470544000000 AA   -0.007810238073   9.349136542367   4.668651538687 Bohr   0.0
[INPUT] 24 H     -0.045539000000   2.221981000000   2.602225000000 AA   -0.086056237987   4.198935543987   4.917492564496 Bohr   0.0
[INPUT] 25 H     -0.085582000000   4.814251000000  -2.409019000000 AA   -0.161726541193   9.097615884913  -4.552386138874 Bohr   0.0
[INPUT] 26 H      0.099929000000   2.405939000000  -2.631507000000 AA    0.188838441902   4.546565782410  -4.972827524876 Bohr   0.0
[INPUT] 27 H     -0.070599000000   7.009799000000  -1.294710000000 AA   -0.133412774668  13.246600298250  -2.446647310736 Bohr   0.0
[INPUT] 28 H      0.021755000000   7.089746000000   1.295604000000 AA    0.041110991840  13.397678232731   2.448336725891 Bohr   0.0
[INPUT] 29 H     -0.143435000000   0.026032000000   2.594345000000 AA   -0.271052866677   0.049193350475   4.902601522635 Bohr   0.0
[INPUT] 30 H     -0.019936000000   0.111104000000  -2.467712000000 AA   -0.037673580019   0.209956131344  -4.663299834303 Bohr   0.0
[INPUT] 31 H      0.014914000000  -2.585655000000   2.523344000000 AA    0.028183375422  -4.886179802612   4.768429078065 Bohr   0.0
[INPUT] 32 H     -0.104356000000  -2.599032000000  -2.564233000000 AA   -0.197204259455  -4.911458668981  -4.845698089572 Bohr   0.0
[INPUT] 33 H      0.181296000000  -5.063404000000   2.709659000000 AA    0.342599787479  -9.568446818027   5.120513400963 Bohr   0.0
[INPUT] 34 H     -0.132837000000  -4.940750000000  -2.504055000000 AA   -0.251025549209  -9.336664349945  -4.731978150848 Bohr   0.0
[INPUT] 35 H     -0.004570000000  -7.018666000000   1.164575000000 AA   -0.008636048389 -13.263356499797   2.200727801515 Bohr   0.0
[INPUT] 36 H      0.060723000000  -7.187220000000  -1.225456000000 AA    0.114749839462 -13.581877396997  -2.315776217705 Bohr   0.0
[INPUT] ---------------- BASIS SET ---------------- 
[INPUT] l, kappa, [nprim/nctr], expnt,             c_1 c_2 ...
[INPUT] H
[INPUT] 0    0    [3    /1   ]  3.42525091        0.15432897
                                0.62391373        0.53532814
                                0.1688554         0.44463454
[INPUT] C
[INPUT] 0    0    [3    /1   ]  71.616837         0.15432897
                                13.045096         0.53532814
                                3.5305122         0.44463454
[INPUT] 0    0    [3    /1   ]  2.9412494         -0.09996723
                                0.6834831         0.39951283
                                0.2222899         0.70011547
[INPUT] 1    0    [3    /1   ]  2.9412494         0.15591627
                                0.6834831         0.60768372
                                0.2222899         0.39195739

nuclear repulsion = 1486.76568917994
number of shells = 80
number of NR pGTOs = 372
number of NR cGTOs = 124
basis = sto3g
ecp = {}
CPU time:     22632.56
atom C rad-grids = 99, ang-grids = [ 50  50  50  50  50  50  50  50  50  50  50  50  50  50  50  50  50  50
  50  50  50  50  50  50  50  50  50  50  50  50  50  86  86  86  86  86
  86  86  86  86  86  86  86 434 434 434 434 434 434 434 434 434 590 590
 590 590 590 590 590 590 590 590 590 590 590 590 590 590 590 590 590 590
 590 590 590 590 590 590 590 434 434 434 434 434 434 434 434 434 434 434
 434 434 434 434 434 434 434 434 434]
atom H rad-grids = 99, ang-grids = [ 50  50  50  50  50  50  50  50  50  50  50  50  50  50  50  50  50  50
  50  50  50  50  50  50  50  50  50  50  86  86  86  86  86  86  86 434
 434 434 434 434 434 434 434 590 590 590 590 590 590 590 590 590 590 590
 590 590 590 590 590 590 590 590 590 590 590 590 590 590 590 434 434 434
 434 434 434 434 434 434 434 434 434 434 434 434 434 434 434 434 434 434
 434 434 434 434 434 434 434 434 434]
tot_boxes 5270, boxes in each direction [ 8 29 15]
Padding 0 grids
tot grids = 1157832


******** <class 'pyscf.dft.rks.RKS'> ********
method = RKS
initial guess = minao
damping factor = 0
level_shift factor = 0
DIIS = <class 'pyscf.scf.diis.CDIIS'>
diis_start_cycle = 1
diis_space = 8
SCF conv_tol = 1e-10
SCF conv_tol_grad = None
SCF max_cycles = 50
direct_scf = True
direct_scf_tol = 1e-13
chkfile to save SCF result = /home/saade/mlelec/tutorials/tmpzia7zhe4
max_memory 4000 MB (current use 637 MB)
XC library pyscf.dft.libxc version 6.1.0
    S. Lehtola, C. Steigemann, M. J.T. Oliveira, and M. A.L. Marques.,  SoftwareX 7, 1–5 (2018)
XC functionals = b3lypg
    P. J. Stephens, F. J. Devlin, C. F. Chabalowski, and M. J. Frisch.,  J. Phys. Chem. 98, 11623 (1994)
radial grids: 
    Treutler-Ahlrichs [JCP 102, 346 (1995); DOI:10.1063/1.469408] (M4) radial grids
    
becke partition: Becke, JCP 88, 2547 (1988); DOI:10.1063/1.454033
pruning grids: <function nwchem_prune at 0x7f9db5616ca0>
grids dens level: 3
symmetrized grids: False
atomic radii adjust function: <function treutler_atomic_radii_adjust at 0x7f9db5617380>
User specified grid scheme (99, 590)
small_rho_cutoff = 1e-07
Set gradient conv threshold to 1e-05
Initial guess from minao.
nelec by numeric integration = 145.27033292872994
    CPU time for vxc     37.09 sec, wall time     15.49 sec
E1 = -4073.786326840209  Ecoul = 1871.760530328877  Exc = -125.91663632141803
init E= -841.176743652814
cond(S) = 27.749405166389582
    CPU time for initialize scf     46.54 sec, wall time     17.78 sec
  HOMO = -0.199763551274414  LUMO = -0.151936263564383
  mo_energy =
[-1.01537863e+01 -1.01501432e+01 -1.01328355e+01 -1.01296828e+01
 -1.01167098e+01 -1.01120316e+01 -1.01082769e+01 -1.01082083e+01
 -1.01079817e+01 -1.01075238e+01 -1.01058799e+01 -1.01053172e+01
 -1.01028627e+01 -1.01001141e+01 -1.00887840e+01 -1.00868219e+01
 -1.00841630e+01 -1.00833555e+01 -1.00832795e+01 -1.00822733e+01
 -1.00788871e+01 -1.00781939e+01 -1.09761706e+00 -1.07026936e+00
 -1.05906116e+00 -9.82008732e-01 -9.69746958e-01 -9.51444148e-01
 -9.14539108e-01 -8.85852181e-01 -8.50159647e-01 -8.23571000e-01
 -7.91056281e-01 -7.72736749e-01 -7.22286158e-01 -7.06770766e-01
 -6.77768880e-01 -6.76999119e-01 -6.43195227e-01 -6.25260937e-01
 -5.94177592e-01 -5.84531647e-01 -5.56804102e-01 -5.37757997e-01
 -5.28659861e-01 -5.17426639e-01 -5.12206625e-01 -5.01195746e-01
 -4.90634378e-01 -4.87292718e-01 -4.79031378e-01 -4.71503803e-01
 -4.53543945e-01 -4.48845191e-01 -4.39855644e-01 -4.37801484e-01
 -4.24583718e-01 -4.21859616e-01 -3.98124054e-01 -3.86221495e-01
 -3.76357709e-01 -3.71668303e-01 -3.63678786e-01 -3.59483746e-01
 -3.43639250e-01 -3.21494474e-01 -3.16965131e-01 -2.98375007e-01
 -2.87258438e-01 -2.77694503e-01 -2.65983949e-01 -2.34695247e-01
 -1.99763551e-01 -1.51936264e-01 -1.12350676e-01 -7.56575277e-02
 -5.14968762e-02 -2.94206508e-02 -2.20446922e-03  1.61915320e-02
  4.40079329e-02  7.54880310e-02  7.98462250e-02  1.05713115e-01
  1.11528856e-01  1.17618614e-01  1.27984069e-01  1.47135321e-01
  1.48991835e-01  1.68414007e-01  1.83778125e-01  1.86133873e-01
  2.04239169e-01  2.17585847e-01  2.25694094e-01  2.35446315e-01
  2.59329846e-01  2.71431127e-01  2.82519076e-01  2.95676417e-01
  3.05857341e-01  3.22991655e-01  3.51232936e-01  3.73060687e-01
  3.82486413e-01  3.94124968e-01  3.97550017e-01  4.26860461e-01
  4.35920105e-01  4.87643784e-01  5.07924667e-01  5.41052085e-01
  5.73069319e-01  5.77577432e-01  6.14451604e-01  6.27095851e-01
  6.44697534e-01  6.92638967e-01  7.03922448e-01  7.24699708e-01
  7.45884941e-01  7.71723570e-01  8.53815443e-01  9.64717674e-01]
nelec by numeric integration = 145.9999949305417
    CPU time for vxc     37.59 sec, wall time     15.62 sec
E1 = -4089.1103247814967  Ecoul = 1891.4209143075752  Exc = -124.59255700375996
cycle= 1 E= -835.516278297745  delta_E= 5.66  |g|=  0.3  |ddm|= 9.29
    CPU time for cycle= 1     37.90 sec, wall time     15.67 sec
  HOMO = -0.077771662031291  LUMO = -0.000202542285198464
  mo_energy =
[-1.00491732e+01 -1.00357545e+01 -1.00145624e+01 -1.00088818e+01
 -1.00078777e+01 -1.00065836e+01 -1.00000880e+01 -9.99558780e+00
 -9.99554024e+00 -9.99229918e+00 -9.97242040e+00 -9.97160528e+00
 -9.97159211e+00 -9.96920878e+00 -9.96828290e+00 -9.96480764e+00
 -9.96397292e+00 -9.95791927e+00 -9.95712936e+00 -9.95214474e+00
 -9.94932340e+00 -9.94134655e+00 -8.26954026e-01 -8.18615219e-01
 -8.05711681e-01 -7.58359116e-01 -7.49727381e-01 -7.29513481e-01
 -7.11635246e-01 -7.00972624e-01 -6.70040274e-01 -6.47049624e-01
 -6.25123667e-01 -6.09188091e-01 -5.81851663e-01 -5.54955433e-01
 -5.40202958e-01 -5.31769855e-01 -5.14972006e-01 -4.92161279e-01
 -4.80109613e-01 -4.62515414e-01 -4.38367855e-01 -4.23925052e-01
 -4.21587619e-01 -4.09857864e-01 -4.05039591e-01 -3.98318956e-01
 -3.82986690e-01 -3.78469261e-01 -3.64244265e-01 -3.48803961e-01
 -3.43648103e-01 -3.30550755e-01 -3.29498225e-01 -3.27790282e-01
 -3.14150217e-01 -3.10841964e-01 -2.92426750e-01 -2.81208185e-01
 -2.62561569e-01 -2.59491532e-01 -2.53537195e-01 -2.44011889e-01
 -2.33768330e-01 -2.26127402e-01 -2.08008061e-01 -1.90198053e-01
 -1.87852039e-01 -1.80875530e-01 -1.57728258e-01 -1.25452293e-01
 -7.77716620e-02 -2.02542285e-04  3.18399048e-02  7.37253344e-02
  9.39472902e-02  1.26345658e-01  1.43840520e-01  1.81736862e-01
  2.01975469e-01  2.34210280e-01  2.41718024e-01  2.46703330e-01
  2.58349731e-01  2.76521895e-01  2.85088006e-01  3.05004475e-01
  3.07039875e-01  3.21865168e-01  3.27343873e-01  3.44561578e-01
  3.55196543e-01  3.61216349e-01  3.74573906e-01  3.82916013e-01
  4.13221902e-01  4.20543566e-01  4.36575796e-01  4.43548531e-01
  4.67925161e-01  4.75959699e-01  4.79841481e-01  5.07639651e-01
  5.23679076e-01  5.41105704e-01  5.56580137e-01  5.63412858e-01
  5.92422564e-01  6.31425437e-01  6.58590193e-01  6.88738680e-01
  7.15780408e-01  7.21150585e-01  7.72948884e-01  7.84350318e-01
  8.11785691e-01  8.48406625e-01  8.73540117e-01  8.98112987e-01
  9.34717270e-01  9.59694954e-01  1.03740081e+00  1.14765157e+00]
nelec by numeric integration = 145.99999468300095
    CPU time for vxc     38.00 sec, wall time     15.73 sec
E1 = -4082.2877470210365  Ecoul = 1884.433623005516  Exc = -124.4190968511534
cycle= 2 E= -835.507531686738  delta_E= 0.00875  |g|= 0.357  |ddm|= 0.985
    CPU time for cycle= 2     38.46 sec, wall time     15.80 sec
  HOMO = -0.103915300415452  LUMO = -0.0252817096561895
  mo_energy =
[-10.04794497 -10.04594699 -10.04179286 -10.03082612 -10.02866097
 -10.02178232 -10.01996836 -10.01929286 -10.01782498 -10.01303078
 -10.01164349 -10.01135342 -10.01134083 -10.01007698 -10.00709303
 -10.00541891 -10.00074865  -9.99563341  -9.99101515  -9.9881421
  -9.98110739  -9.97350189  -0.86624654  -0.84284336  -0.82795486
  -0.78374596  -0.77287456  -0.75915841  -0.73099863  -0.70630304
  -0.68294945  -0.66390609  -0.64644961  -0.62867484  -0.59122955
  -0.57306817  -0.55618001  -0.55196521  -0.52366186  -0.51379018
  -0.48911004  -0.48345339  -0.45239563  -0.4386042   -0.43114358
  -0.42316312  -0.41915081  -0.41409448  -0.4019112   -0.39484781
  -0.38040788  -0.37739907  -0.35826114  -0.35352937  -0.34692064
  -0.33985105  -0.33432449  -0.33112923  -0.31431615  -0.29255329
  -0.28824294  -0.27657598  -0.27556315  -0.26692084  -0.250777
  -0.23867994  -0.22504225  -0.21221793  -0.20667152  -0.18776672
  -0.17136013  -0.14019528  -0.1039153   -0.02528171   0.01999348
   0.05769355   0.08820028   0.10767507   0.12722617   0.15501126
   0.18578299   0.20898836   0.21054743   0.23668135   0.24897385
   0.25686167   0.26349975   0.28712422   0.29395559   0.30141569
   0.31185768   0.31701457   0.33441137   0.35151933   0.36261234
   0.37710563   0.3967746    0.40430152   0.41521751   0.43584952
   0.44927224   0.45751999   0.48814911   0.48929802   0.51140767
   0.52170103   0.53465677   0.56333138   0.57610522   0.61725687
   0.65172578   0.67490862   0.70643138   0.71110878   0.75207542
   0.76012263   0.77923419   0.83210771   0.84113388   0.8635073
   0.88613829   0.91964517   0.98400101   1.12998312]
nelec by numeric integration = 145.99999484488467
    CPU time for vxc     38.48 sec, wall time     15.75 sec
E1 = -4085.776421373802  Ecoul = 1887.948964629354  Exc = -124.47575754066139
cycle= 3 E= -835.537525105173  delta_E= -0.03  |g|= 0.203  |ddm|=  0.8
    CPU time for cycle= 3     38.94 sec, wall time     15.83 sec
  HOMO = -0.104094318436032  LUMO = -0.0237530695490224
  mo_energy =
[-10.0376105  -10.03354857 -10.02978993 -10.029602   -10.02909368
 -10.0282799  -10.02225928 -10.02191592 -10.02095711 -10.01854441
 -10.01732077 -10.01718921 -10.01530174 -10.01514736 -10.01434992
 -10.01243226 -10.01089304 -10.00907949 -10.00853446 -10.00762001
 -10.00316374 -10.00220657  -0.86045172  -0.84273009  -0.83739813
  -0.78365507  -0.77708892  -0.76239783  -0.73475527  -0.71439436
  -0.68900764  -0.66776254  -0.64356942  -0.63302726  -0.59602083
  -0.57864223  -0.55894121  -0.55605547  -0.52913173  -0.51119438
  -0.49297294  -0.48052522  -0.45650731  -0.44149467  -0.43673432
  -0.42709337  -0.42356621  -0.41371701  -0.4023884   -0.3991072
  -0.3874443   -0.37255747  -0.36159727  -0.35625345  -0.35255494
  -0.34627668  -0.33851536  -0.3352584   -0.31131112  -0.29327106
  -0.29087009  -0.28179247  -0.27773079  -0.26859077  -0.25523395
  -0.2448685   -0.22911332  -0.21714209  -0.20547651  -0.19551558
  -0.17758439  -0.1451118   -0.10409432  -0.02375307   0.0148917
   0.05277051   0.07744953   0.10216783   0.12791982   0.14953821
   0.18015986   0.21250374   0.21460999   0.23636594   0.24069334
   0.2516865    0.26107942   0.28128157   0.28537023   0.30766458
   0.31310464   0.3220433    0.33440974   0.35325229   0.35956844
   0.36358239   0.39371087   0.40300998   0.41784873   0.42982355
   0.441463     0.45242645   0.47860428   0.49581729   0.50986824
   0.52077553   0.53038766   0.55405532   0.56666193   0.60816505
   0.64172216   0.66502136   0.6982453    0.7033837    0.75125047
   0.75826543   0.77710431   0.82805664   0.84185597   0.86423582
   0.89191172   0.91702157   0.99878592   1.1118787 ]
nelec by numeric integration = 145.99999479552847
    CPU time for vxc     37.63 sec, wall time     15.57 sec
E1 = -4085.6747109149164  Ecoul = 1887.8438401578421  Exc = -124.48410316808607
cycle= 4 E= -835.549284745224  delta_E= -0.0118  |g|= 0.101  |ddm|= 0.512
    CPU time for cycle= 4     38.12 sec, wall time     15.65 sec
  HOMO = -0.104817351031239  LUMO = -0.0262378627148985
  mo_energy =
[-10.04136815 -10.03744846 -10.03524384 -10.02864149 -10.02831904
 -10.02790965 -10.0271408  -10.02301991 -10.01979215 -10.01977479
 -10.01953397 -10.01771472 -10.01672454 -10.01639055 -10.01610218
 -10.01350601 -10.01063624 -10.01015468 -10.00842386 -10.00748094
  -9.9980165   -9.99722244  -0.86194139  -0.84389117  -0.83840916
  -0.78410546  -0.77803044  -0.76118921  -0.73298855  -0.71454266
  -0.68857288  -0.66674635  -0.64495645  -0.63536195  -0.59638336
  -0.57735896  -0.55723681  -0.5547639   -0.5284915   -0.51356853
  -0.49305917  -0.48343931  -0.45595036  -0.44141116  -0.43748106
  -0.42602302  -0.4235073   -0.41541065  -0.40493926  -0.3980609
  -0.38565155  -0.37488079  -0.36170751  -0.3568662   -0.35279391
  -0.34552475  -0.33809459  -0.33468859  -0.31164252  -0.29344752
  -0.29156515  -0.28203327  -0.27753481  -0.2687043   -0.25403489
  -0.24618073  -0.22894644  -0.2157925   -0.20650269  -0.19606807
  -0.17743566  -0.14497155  -0.10481735  -0.02623786   0.01404752
   0.05328709   0.07786328   0.10397431   0.12890577   0.15154459
   0.17964155   0.21111828   0.21282138   0.23604073   0.24015838
   0.25265115   0.26205755   0.28329946   0.28532872   0.3024851
   0.31294871   0.31800096   0.33514694   0.35146078   0.35832077
   0.36380366   0.39573303   0.40413377   0.41509006   0.43256623
   0.44467227   0.45293823   0.47628251   0.49295819   0.50896771
   0.51973604   0.53047201   0.55426733   0.56944577   0.6141889
   0.64378222   0.66621861   0.69722632   0.70453091   0.75180752
   0.75801988   0.780227     0.82720855   0.83988365   0.86298708
   0.88993224   0.91673015   0.99117764   1.11122702]
nelec by numeric integration = 145.99999481599554
    CPU time for vxc     37.80 sec, wall time     15.67 sec
E1 = -4085.633247395846  Ecoul = 1887.7992568817237  Exc = -124.48464637150556
cycle= 5 E= -835.552947705692  delta_E= -0.00366  |g|= 0.0359  |ddm|= 0.23
    CPU time for cycle= 5     38.35 sec, wall time     15.75 sec
  HOMO = -0.104790315676958  LUMO = -0.0255111845781967
  mo_energy =
[-10.04116029 -10.03382273 -10.03065369 -10.02900664 -10.02890537
 -10.02418331 -10.02244352 -10.0214412  -10.02101574 -10.02030909
 -10.01717414 -10.01710285 -10.01610092 -10.01428684 -10.01375989
 -10.01238994 -10.01179473 -10.00928306 -10.00848664 -10.00748872
 -10.00280114 -10.00018376  -0.861413    -0.84229582  -0.83651277
  -0.78321035  -0.77724538  -0.76092709  -0.73357325  -0.71368983
  -0.68827076  -0.66678327  -0.64390876  -0.63453199  -0.59617116
  -0.57690007  -0.55715173  -0.55519373  -0.52775783  -0.5125585
  -0.4926074   -0.48258559  -0.45575758  -0.44066675  -0.43637095
  -0.4258588   -0.42292085  -0.41414235  -0.40380298  -0.39859214
  -0.3852592   -0.37434355  -0.36184541  -0.35648224  -0.35162895
  -0.34559381  -0.33744556  -0.33522581  -0.31180189  -0.29355512
  -0.29103978  -0.28186121  -0.27760729  -0.26876112  -0.25409127
  -0.24481564  -0.22902343  -0.21615681  -0.20660423  -0.19514468
  -0.17738941  -0.14526872  -0.10479032  -0.02551118   0.01424379
   0.05296638   0.07895585   0.10323677   0.12855673   0.15145435
   0.18003803   0.21114333   0.21327316   0.23658218   0.24200804
   0.25284376   0.26187945   0.28310778   0.28635696   0.30374023
   0.31166505   0.31886592   0.33535969   0.35191024   0.35951746
   0.36499113   0.39503102   0.40359421   0.41556417   0.4320476
   0.44440045   0.45353021   0.47793929   0.49411297   0.50896736
   0.51980417   0.53093913   0.55532958   0.56974433   0.61247149
   0.644568     0.66701915   0.69877182   0.70474071   0.75104289
   0.75683026   0.78011376   0.82783776   0.84113579   0.86331384
   0.89156449   0.91736967   0.99344956   1.11591006]
nelec by numeric integration = 145.9999948082485
    CPU time for vxc     38.28 sec, wall time     15.77 sec
E1 = -4085.648291564879  Ecoul = 1887.8108633264694  Exc = -124.48165458498451
cycle= 6 E= -835.553393643458  delta_E= -0.000446  |g|= 0.0132  |ddm|= 0.073
    CPU time for cycle= 6     38.81 sec, wall time     15.85 sec
  HOMO = -0.104472409510532  LUMO = -0.0251196585926961
  mo_energy =
[-10.04003081 -10.0342473  -10.02960581 -10.02916209 -10.02805125
 -10.02400766 -10.02223794 -10.02132587 -10.01904944 -10.01652611
 -10.0164584  -10.01608616 -10.01487439 -10.01438526 -10.01310132
 -10.01292052 -10.01165691 -10.01106065 -10.00821091 -10.00733439
 -10.00158283  -9.99929521  -0.86098142  -0.84201851  -0.83623929
  -0.78287046  -0.77677314  -0.76055668  -0.73308486  -0.71320592
  -0.68774478  -0.66623454  -0.64375672  -0.6341373   -0.59560154
  -0.57650093  -0.5569811   -0.5546142   -0.52737894  -0.51244885
  -0.49222837  -0.4821259   -0.45540549  -0.44031976  -0.43621897
  -0.42552797  -0.42284015  -0.413984    -0.40357686  -0.39800342
  -0.38492416  -0.37412886  -0.36117675  -0.3561915   -0.35121193
  -0.34493353  -0.33700861  -0.3348994   -0.31203444  -0.29288444
  -0.29100379  -0.28104838  -0.27718577  -0.26841939  -0.25361204
  -0.24464455  -0.22854981  -0.21562431  -0.20651591  -0.19499281
  -0.1768471   -0.14459777  -0.10447241  -0.02511966   0.01491174
   0.05371353   0.07916006   0.10388207   0.12835132   0.15184903
   0.18088656   0.21172153   0.21323458   0.23689337   0.24199542
   0.25324346   0.26232306   0.28382765   0.28686249   0.30395689
   0.31272027   0.31910578   0.33561054   0.35225342   0.35976374
   0.36512633   0.39547756   0.40378429   0.41612457   0.43241023
   0.44506806   0.45400159   0.47818337   0.49412516   0.50964731
   0.52021556   0.53166915   0.55559919   0.57011576   0.61286214
   0.64505507   0.66734581   0.69926262   0.70501584   0.7519314
   0.75805903   0.77981728   0.82856768   0.84113344   0.86401586
   0.89159172   0.91772316   0.99336679   1.11586006]
nelec by numeric integration = 145.9999948094479
    CPU time for vxc     37.90 sec, wall time     15.69 sec
E1 = -4085.5953591845264  Ecoul = 1887.7571806361907  Exc = -124.48096350922482
cycle= 7 E= -835.553452877624  delta_E= -5.92e-05  |g|= 0.00367  |ddm|= 0.0224
    CPU time for cycle= 7     38.48 sec, wall time     15.78 sec
  HOMO = -0.104401171726861  LUMO = -0.0250150627496915
  mo_energy =
[-10.04004202 -10.03424521 -10.02944308 -10.0293981  -10.02808368
 -10.02369521 -10.0224216  -10.0214318  -10.0195795  -10.01712072
 -10.01630526 -10.01570739 -10.0148689  -10.01468911 -10.01278198
 -10.01243809 -10.011341   -10.01073582 -10.00861525 -10.00741775
 -10.00120273  -9.99853995  -0.86092715  -0.84202606  -0.83626166
  -0.78288454  -0.77678975  -0.76054443  -0.73297909  -0.71315725
  -0.68774449  -0.66617019  -0.64366043  -0.63410435  -0.59556462
  -0.57650714  -0.55689975  -0.5545983   -0.52739055  -0.51239282
  -0.49225372  -0.48213327  -0.4553741   -0.44030172  -0.4361754
  -0.42546627  -0.42279689  -0.41401184  -0.40354151  -0.39799061
  -0.38493766  -0.37403571  -0.36113782  -0.3561231   -0.35124469
  -0.3449961   -0.33701812  -0.33479561  -0.3118965   -0.29293504
  -0.29093517  -0.28111624  -0.27715239  -0.26840239  -0.25360716
  -0.24465004  -0.22853156  -0.21560644  -0.20641396  -0.19488346
  -0.17684662  -0.14454018  -0.10440117  -0.02501506   0.01498907
   0.053701     0.07929218   0.1039509    0.12849439   0.1518499
   0.18081061   0.21174366   0.21333704   0.23693593   0.24199829
   0.25324322   0.26237361   0.28377469   0.28680709   0.30400382
   0.31263068   0.31915167   0.33561531   0.35228558   0.35979175
   0.36517928   0.39552562   0.40388223   0.41611313   0.43252719
   0.44497946   0.45395717   0.47840873   0.49414857   0.50963861
   0.52028894   0.53154962   0.55571655   0.57016085   0.61305551
   0.64498855   0.66740384   0.69923485   0.70509042   0.75197233
   0.75805507   0.78005529   0.82856181   0.84118063   0.86395716
   0.89161002   0.91766945   0.99347611   1.1157312 ]
nelec by numeric integration = 145.99999480902687
    CPU time for vxc     37.56 sec, wall time     15.59 sec
E1 = -4085.597086450464  Ecoul = 1887.7588408047263  Exc = -124.48090079877113
cycle= 8 E= -835.553457264572  delta_E= -4.39e-06  |g|= 0.00121  |ddm|= 0.0066
    CPU time for cycle= 8     38.17 sec, wall time     15.69 sec
  HOMO = -0.104436850379165  LUMO = -0.0250140085624385
  mo_energy =
[-10.0401395  -10.03431866 -10.0295055  -10.02947112 -10.02800766
 -10.02381227 -10.02247762 -10.02122632 -10.01947354 -10.0170043
 -10.01631191 -10.01585517 -10.01479519 -10.01467204 -10.01273595
 -10.01249249 -10.0112651  -10.0105502  -10.00862062 -10.00744722
 -10.00130061  -9.99881614  -0.86096638  -0.84203118  -0.83627101
  -0.78287603  -0.77676618  -0.76056904  -0.7330055   -0.71314696
  -0.68774284  -0.66618928  -0.64368098  -0.63411582  -0.59556247
  -0.57652545  -0.55690563  -0.55461334  -0.52739083  -0.51241139
  -0.4922678   -0.48215174  -0.45539148  -0.44031286  -0.43618253
  -0.42547804  -0.42279758  -0.41401753  -0.40355896  -0.3980095
  -0.38494162  -0.37406165  -0.36113852  -0.35614299  -0.35123911
  -0.34498255  -0.33702637  -0.33480538  -0.31185103  -0.29290116
  -0.290932    -0.28108751  -0.27715771  -0.26840016  -0.25362372
  -0.24464157  -0.22853963  -0.21562612  -0.20639892  -0.19488248
  -0.17684001  -0.1445543   -0.10443685  -0.02501401   0.01498944
   0.05370651   0.0792875    0.10393539   0.12853901   0.15184472
   0.18083615   0.21175292   0.21334572   0.2369456    0.24197983
   0.25324491   0.26235606   0.2837674    0.28681987   0.30400825
   0.31266985   0.31913756   0.3356043    0.35228284   0.35977951
   0.3651501    0.39552253   0.40386999   0.41610951   0.43249604
   0.44496485   0.45395241   0.47840611   0.49413473   0.50964306
   0.52027232   0.53154896   0.55569169   0.57013698   0.61301877
   0.64497898   0.66738238   0.69924592   0.70509186   0.75194009
   0.7580926    0.7800734    0.82859152   0.84120957   0.86394559
   0.8915878    0.91763797   0.99343823   1.11567725]
nelec by numeric integration = 145.99999480941966
    CPU time for vxc     38.17 sec, wall time     15.73 sec
E1 = -4085.597686121167  Ecoul = 1887.7594729358505  Exc = -124.48093371148137
cycle= 9 E= -835.553457716862  delta_E= -4.52e-07  |g|= 0.000463  |ddm|= 0.00216
    CPU time for cycle= 9     38.73 sec, wall time     15.81 sec
  HOMO = -0.104443322571824  LUMO = -0.0250082657165685
  mo_energy =
[-10.04010822 -10.0342923  -10.02949172 -10.0294704  -10.02808299
 -10.02380217 -10.02251267 -10.02132801 -10.01947576 -10.01705492
 -10.01627584 -10.01591626 -10.01482378 -10.01465522 -10.0127418
 -10.01257003 -10.01137161 -10.01060213 -10.00853304 -10.00738664
 -10.00130825  -9.99873977  -0.86095201  -0.84204377  -0.8362944
  -0.78288474  -0.77680011  -0.76055171  -0.73300379  -0.71317452
  -0.68774862  -0.66619464  -0.6436836   -0.63412689  -0.59558423
  -0.57652488  -0.55691736  -0.55460853  -0.52740974  -0.51241232
  -0.49226686  -0.48214773  -0.45538861  -0.44032337  -0.43619825
  -0.42549977  -0.42280843  -0.41402389  -0.40356376  -0.39800306
  -0.38494129  -0.37405527  -0.36115485  -0.35614681  -0.35125958
  -0.34499483  -0.33703482  -0.33479942  -0.31184997  -0.29291897
  -0.29093133  -0.28112131  -0.27714596  -0.2683911   -0.25360825
  -0.24466538  -0.22853278  -0.21561203  -0.20639828  -0.19490844
  -0.17684633  -0.14456813  -0.10444332  -0.02500827   0.01497436
   0.0537014    0.07926577   0.1039368    0.12854403   0.15186416
   0.18080023   0.21175433   0.21334783   0.23693155   0.24196438
   0.25324716   0.26236324   0.28377384   0.28679304   0.30401407
   0.3126612    0.3191435    0.33561746   0.35228479   0.35978235
   0.36513675   0.39553504   0.40387005   0.41611841   0.43248979
   0.444987     0.45394102   0.47834765   0.4941299    0.50962456
   0.5202564    0.53155046   0.55566204   0.57013515   0.61301327
   0.64498485   0.66736704   0.69920674   0.70507417   0.75194857
   0.75804635   0.7800434    0.82854958   0.84119618   0.86396123
   0.89160923   0.91767316   0.99344381   1.11564903]
nelec by numeric integration = 145.99999480940008
    CPU time for vxc     37.98 sec, wall time     15.71 sec
E1 = -4085.59866585183  Ecoul = 1887.7604926119027  Exc = -124.48097372347317
cycle= 10 E= -835.553457783464  delta_E= -6.66e-08  |g|= 0.000189  |ddm|= 0.000877
    CPU time for cycle= 10     38.53 sec, wall time     15.80 sec
  HOMO = -0.104448100076348  LUMO = -0.0250118070634718
  mo_energy =
[-10.04011345 -10.03428457 -10.02948219 -10.02946368 -10.02806326
 -10.02380587 -10.02248916 -10.02131845 -10.01949981 -10.01705597
 -10.01629763 -10.01586957 -10.01482749 -10.01466528 -10.01276706
 -10.01256737 -10.011376   -10.01060554 -10.00856148 -10.00741046
 -10.00128823  -9.99878213  -0.86095672  -0.84204318  -0.83628915
  -0.78288523  -0.77679461  -0.76056118  -0.73300173  -0.71317558
  -0.68775137  -0.66619745  -0.64368491  -0.63412804  -0.59558282
  -0.57652804  -0.55691569  -0.55461221  -0.52740841  -0.51241378
  -0.49226939  -0.48215059  -0.45539114  -0.44032181  -0.43619449
  -0.42549789  -0.42280521  -0.41402447  -0.40356605  -0.39800594
  -0.38494644  -0.37405756  -0.36115829  -0.35614695  -0.35125715
  -0.34499674  -0.3370342   -0.33480074  -0.31185368  -0.2929197
  -0.29093366  -0.28111676  -0.2771537   -0.26839645  -0.25361759
  -0.24466138  -0.22853667  -0.21561915  -0.20639988  -0.19490818
  -0.17684988  -0.14457164  -0.1044481   -0.02501181   0.01497247
   0.05369806   0.07926369   0.10393716   0.12853999   0.15185329
   0.18080603   0.21175035   0.21334622   0.23693455   0.24197091
   0.25324281   0.26235995   0.28376565   0.28679641   0.30400871
   0.31265547   0.31914048   0.33561218   0.35228238   0.35977996
   0.36513871   0.39553119   0.40387227   0.4161111    0.43249586
   0.44497463   0.45394056   0.4783508    0.49413016   0.50962414
   0.52025938   0.53154508   0.55566285   0.57012807   0.61302182
   0.64497654   0.66736308   0.69921489   0.70507977   0.75194367
   0.75804726   0.78005172   0.82855253   0.84119354   0.86395131
   0.89160043   0.91766005   0.99344256   1.1156697 ]
nelec by numeric integration = 145.9999948093894
    CPU time for vxc     37.99 sec, wall time     15.67 sec
E1 = -4085.5986117508123  Ecoul = 1887.7604375589094  Exc = -124.48097278423171
cycle= 11 E= -835.553457796198  delta_E= -1.27e-08  |g|= 6.36e-05  |ddm|= 0.000333
    CPU time for cycle= 11     38.31 sec, wall time     15.72 sec
  HOMO = -0.104450522286903  LUMO = -0.0250120738668642
  mo_energy =
[-10.04012046 -10.03429202 -10.02948938 -10.02946576 -10.02805878
 -10.02381674 -10.02248618 -10.02131468 -10.01948751 -10.01705545
 -10.0163051  -10.01588312 -10.01482397 -10.01466397 -10.01276313
 -10.01255648 -10.01136478 -10.01060677 -10.00856306 -10.00741091
 -10.00129809  -9.99876502  -0.86096114  -0.84204308  -0.83628824
  -0.78288566  -0.77679343  -0.76056136  -0.73300575  -0.71317172
  -0.68775102  -0.66619547  -0.64368609  -0.63412752  -0.59558223
  -0.57652619  -0.55691523  -0.55461397  -0.527406    -0.51241457
  -0.49226847  -0.48215237  -0.45539107  -0.44032166  -0.43619452
  -0.42549487  -0.42280605  -0.414023    -0.40356561  -0.39800758
  -0.38494396  -0.37406172  -0.36115522  -0.35614767  -0.35125521
  -0.34499469  -0.33703409  -0.33480452  -0.31185788  -0.29291949
  -0.29093605  -0.28111503  -0.27715481  -0.26839855  -0.25361762
  -0.24465955  -0.22853833  -0.21561984  -0.20640323  -0.19490591
  -0.17684901  -0.14456984  -0.10445052  -0.02501207   0.01497428
   0.05369845   0.07926826   0.10393372   0.12853563   0.15185285
   0.18080795   0.21174703   0.21334246   0.23693368   0.24197236
   0.25324256   0.26235834   0.28376815   0.28679885   0.3040065
   0.3126556    0.31913747   0.33561092   0.35228053   0.35977922
   0.36514089   0.39552741   0.40386941   0.41610951   0.43249406
   0.44497713   0.45394303   0.47835813   0.49412993   0.50962571
   0.52025927   0.53154669   0.55566922   0.57013398   0.61301687
   0.64497945   0.66736866   0.69921768   0.70507843   0.75194061
   0.75805002   0.78004823   0.82855531   0.84119287   0.86394774
   0.89159753   0.91765805   0.993438     1.11567139]
nelec by numeric integration = 145.99999480940699
    CPU time for vxc     37.99 sec, wall time     15.66 sec
E1 = -4085.598722188898  Ecoul = 1887.7605467335773  Exc = -124.48097152218624
cycle= 12 E= -835.553457797571  delta_E= -1.37e-09  |g|= 3.11e-05  |ddm|= 0.000148
    CPU time for cycle= 12     38.47 sec, wall time     15.74 sec
  HOMO = -0.104448299050868  LUMO = -0.0250100270881481
  mo_energy =
[-10.04011267 -10.03429372 -10.02947994 -10.02946304 -10.02806194
 -10.02381542 -10.02248413 -10.02131234 -10.0194897  -10.01705362
 -10.01629224 -10.01588337 -10.01482296 -10.01466615 -10.01276567
 -10.01255381 -10.01136194 -10.01060146 -10.00855579 -10.00740257
 -10.00128681  -9.9987663   -0.86095742  -0.84204138  -0.83628609
  -0.78288426  -0.77679287  -0.76055815  -0.73300235  -0.71316997
  -0.68774862  -0.66619375  -0.64368469  -0.63412613  -0.59558011
  -0.57652438  -0.55691405  -0.55461037  -0.5274047   -0.51241397
  -0.49226706  -0.48215051  -0.45538903  -0.44031968  -0.4361931
  -0.42549412  -0.4228051   -0.41402309  -0.40356468  -0.39800346
  -0.38494175  -0.37405944  -0.3611541   -0.35614596  -0.3512537
  -0.34499326  -0.33703148  -0.33480175  -0.31185697  -0.29291795
  -0.29093446  -0.28111387  -0.27715263  -0.26839601  -0.25361449
  -0.24465865  -0.2285358   -0.21561688  -0.20640215  -0.19490459
  -0.1768473   -0.14456799  -0.1044483   -0.02501003   0.01497628
   0.05370025   0.07927014   0.1039375    0.12853694   0.15185606
   0.18080901   0.21174932   0.21334357   0.23693444   0.24197338
   0.25324512   0.26236109   0.28377004   0.28680001   0.3040067
   0.31265633   0.31913863   0.33561311   0.35228196   0.35978143
   0.36514272   0.39553116   0.40387133   0.41611165   0.43249587
   0.44497973   0.45394425   0.47835944   0.49412927   0.50962659
   0.52026006   0.53154931   0.55566989   0.57013521   0.61302133
   0.64498277   0.6673702    0.69921863   0.70507994   0.75194595
   0.75805174   0.78004996   0.828557     0.84119371   0.86395308
   0.89159934   0.91766244   0.99343797   1.11567307]
nelec by numeric integration = 145.99999480940264
    CPU time for vxc     38.26 sec, wall time     15.72 sec
E1 = -4085.5984638166246  Ecoul = 1887.7602829950722  Exc = -124.48096615601757
cycle= 13 E= -835.553457797634  delta_E= -6.28e-11  |g|= 2.87e-05  |ddm|= 8.45e-05
    CPU time for cycle= 13     38.76 sec, wall time     15.80 sec
  HOMO = -0.104448925828613  LUMO = -0.0250102454677466
  mo_energy =
[-10.04011585 -10.03429044 -10.02948417 -10.02946483 -10.02806108
 -10.02381205 -10.02248617 -10.02131411 -10.0194902  -10.01705392
 -10.01629755 -10.01588064 -10.01482342 -10.01466588 -10.01276292
 -10.01255822 -10.01136416 -10.01060331 -10.00855805 -10.00740587
 -10.00129243  -9.99876666  -0.86095809  -0.84204191  -0.83628731
  -0.78288449  -0.77679305  -0.7605592   -0.73300341  -0.71317133
  -0.68774982  -0.66619464  -0.64368464  -0.63412675  -0.59558126
  -0.57652535  -0.55691449  -0.5546118   -0.52740569  -0.51241372
  -0.49226783  -0.48215084  -0.45538992  -0.44032064  -0.43619387
  -0.42549478  -0.42280537  -0.41402303  -0.40356489  -0.39800533
  -0.38494308  -0.37405943  -0.36115482  -0.35614643  -0.35125464
  -0.34499416  -0.33703278  -0.33480233  -0.31185634  -0.29291873
  -0.29093439  -0.28111465  -0.27715321  -0.26839668  -0.25361564
  -0.24465948  -0.22853667  -0.21561802  -0.20640192  -0.19490558
  -0.17684815  -0.14456899  -0.10444893  -0.02501025   0.01497522
   0.05369945   0.07926864   0.10393609   0.12853728   0.15185488
   0.18080823   0.21174913   0.21334417   0.23693445   0.24197241
   0.25324406   0.26236011   0.28376903   0.286799     0.3040075
   0.31265634   0.31913905   0.33561244   0.3522817    0.35978035
   0.36514111   0.39552977   0.40387089   0.41611117   0.43249527
   0.44497841   0.45394342   0.47835759   0.49413003   0.50962622
   0.52026      0.53154793   0.55566861   0.57013409   0.61301961
   0.64498087   0.66736874   0.69921757   0.70507937   0.75194384
   0.75805073   0.78005009   0.82855582   0.84119391   0.86395108
   0.89159984   0.91766123   0.99343982   1.11567139]
nelec by numeric integration = 145.99999480940065
    CPU time for vxc     37.66 sec, wall time     15.71 sec
E1 = -4085.5985289140817  Ecoul = 1887.7603506113535  Exc = -124.48096867513786
cycle= 14 E= -835.55345779793  delta_E= -2.96e-10  |g|= 8.74e-06  |ddm|= 6.07e-05
    CPU time for cycle= 14     38.17 sec, wall time     15.79 sec
  HOMO = -0.104449256415415  LUMO = -0.0250104859534199
  mo_energy =
[-10.04011572 -10.03429185 -10.02948347 -10.02946552 -10.02806115
 -10.02381345 -10.02248702 -10.02131424 -10.01948997 -10.0170538
 -10.0162976  -10.01588095 -10.01482425 -10.01466527 -10.01276406
 -10.01255747 -10.01136426 -10.01060411 -10.00855917 -10.0074067
 -10.00129176  -9.99876681  -0.86095847  -0.84204234  -0.83628765
  -0.7828849   -0.7767934   -0.7605596   -0.73300347  -0.7131714
  -0.68774986  -0.66619477  -0.64368507  -0.63412693  -0.59558124
  -0.5765256   -0.55691471  -0.55461188  -0.52740585  -0.51241407
  -0.49226792  -0.48215108  -0.45539008  -0.44032082  -0.43619401
  -0.42549496  -0.42280555  -0.41402334  -0.40356517  -0.39800531
  -0.38494327  -0.37405982  -0.3611549   -0.35614669  -0.35125489
  -0.34499428  -0.33703294  -0.33480246  -0.31185654  -0.29291872
  -0.29093481  -0.28111479  -0.27715341  -0.26839686  -0.25361589
  -0.24465961  -0.22853676  -0.21561814  -0.20640204  -0.19490569
  -0.17684821  -0.14456906  -0.10444926  -0.02501049   0.0149752
   0.05369939   0.07926856   0.1039361    0.12853716   0.15185467
   0.18080808   0.2117489    0.21334378   0.23693423   0.24197224
   0.25324391   0.26236      0.28376881   0.28679881   0.30400718
   0.31265634   0.31913866   0.33561221   0.35228152   0.35978028
   0.36514113   0.39552983   0.40387076   0.41611101   0.43249521
   0.44497819   0.45394315   0.47835773   0.49412967   0.50962604
   0.52025977   0.53154777   0.55566856   0.57013383   0.61301972
   0.64498069   0.66736862   0.69921746   0.70507927   0.75194387
   0.75805073   0.78004962   0.82855568   0.84119342   0.86395092
   0.89159904   0.91766067   0.99343892   1.11567084]
nelec by numeric integration = 145.999994809404
    CPU time for vxc     37.60 sec, wall time     15.61 sec
E1 = -4085.5985708340877  Ecoul = 1887.7603935536895  Exc = -124.48096969749056
cycle= 15 E= -835.553457797952  delta_E= -2.27e-11  |g|= 3.07e-06  |ddm|= 1.57e-05
    CPU time for cycle= 15     38.14 sec, wall time     15.69 sec
  HOMO = -0.104449297961161  LUMO = -0.025010469531014
  mo_energy =
[-10.04011632 -10.03429103 -10.0294843  -10.02946448 -10.02806119
 -10.02381377 -10.02248594 -10.021314   -10.01949056 -10.01705556
 -10.01629826 -10.01588134 -10.01482344 -10.01466586 -10.01276378
 -10.01255712 -10.01136496 -10.01060273 -10.00855815 -10.00740572
 -10.00129199  -9.9987666   -0.86095853  -0.84204214  -0.8362874
  -0.78288473  -0.77679334  -0.76055942  -0.73300356  -0.71317139
  -0.68774992  -0.66619477  -0.64368494  -0.63412693  -0.59558141
  -0.57652545  -0.55691456  -0.554612    -0.52740576  -0.512414
  -0.49226792  -0.48215118  -0.45539003  -0.44032076  -0.43619388
  -0.42549491  -0.42280543  -0.41402319  -0.40356515  -0.39800544
  -0.3849431   -0.37405981  -0.36115503  -0.35614664  -0.35125474
  -0.34499434  -0.33703288  -0.3348025   -0.31185638  -0.29291889
  -0.29093461  -0.28111491  -0.27715341  -0.26839685  -0.25361582
  -0.24465949  -0.22853681  -0.21561816  -0.20640203  -0.19490557
  -0.17684826  -0.14456919  -0.1044493   -0.02501047   0.01497505
   0.05369925   0.07926874   0.10393594   0.12853733   0.15185478
   0.18080796   0.21174874   0.21334394   0.23693427   0.24197254
   0.25324396   0.26235996   0.28376884   0.2867989    0.30400714
   0.31265593   0.31913864   0.33561227   0.35228147   0.35978035
   0.36514127   0.3955297    0.40387079   0.41611083   0.43249523
   0.44497829   0.45394326   0.47835766   0.49412973   0.50962589
   0.5202597    0.5315477    0.55566867   0.5701341    0.61301968
   0.64498085   0.66736877   0.69921753   0.70507935   0.75194352
   0.75805021   0.78005002   0.82855557   0.84119366   0.8639507
   0.89159938   0.91766094   0.99343916   1.11567168]
nelec by numeric integration = 145.9999948094032
    CPU time for vxc     37.70 sec, wall time     15.62 sec
E1 = -4085.5985730201737  Ecoul = 1887.7603953122018  Exc = -124.48096926990564
Extra cycle  E= -835.553457797942  delta_E= 1.09e-11  |g|= 5.9e-06  |ddm|= 1.33e-05
    CPU time for scf_cycle    661.02 sec, wall time    269.84 sec
    CPU time for SCF    661.02 sec, wall time    269.84 sec
converged SCF energy = -835.553457797942
nelec by numeric integration = 145.9999948094032
    CPU time for vxc     38.27 sec, wall time     15.80 sec
 ** Mulliken pop  **
pop of  0 C 1s            1.99100
pop of  0 C 2s            1.17684
pop of  0 C 2px           0.99238
pop of  0 C 2py           0.90841
pop of  0 C 2pz           0.91111
pop of  1 C 1s            1.99074
pop of  1 C 2s            1.10500
pop of  1 C 2px           1.01156
pop of  1 C 2py           0.97916
pop of  1 C 2pz           0.93073
pop of  2 C 1s            1.99110
pop of  2 C 2s            1.05518
pop of  2 C 2px           1.02049
pop of  2 C 2py           1.02483
pop of  2 C 2pz           1.03767
pop of  3 C 1s            1.99145
pop of  3 C 2s            1.22161
pop of  3 C 2px           0.99064
pop of  3 C 2py           0.91205
pop of  3 C 2pz           0.95866
pop of  4 C 1s            1.99062
pop of  4 C 2s            1.13012
pop of  4 C 2px           1.00266
pop of  4 C 2py           0.96980
pop of  4 C 2pz           1.02087
pop of  5 C 1s            1.99151
pop of  5 C 2s            1.20692
pop of  5 C 2px           0.97439
pop of  5 C 2py           0.92353
pop of  5 C 2pz           0.93308
pop of  6 C 1s            1.99106
pop of  6 C 2s            1.18221
pop of  6 C 2px           0.98806
pop of  6 C 2py           0.97930
pop of  6 C 2pz           0.94431
pop of  7 C 1s            1.99179
pop of  7 C 2s            1.08633
pop of  7 C 2px           0.99764
pop of  7 C 2py           1.02261
pop of  7 C 2pz           0.95283
pop of  8 C 1s            1.99109
pop of  8 C 2s            1.13434
pop of  8 C 2px           0.97226
pop of  8 C 2py           0.96920
pop of  8 C 2pz           0.96119
pop of  9 C 1s            1.99117
pop of  9 C 2s            1.21164
pop of  9 C 2px           0.97282
pop of  9 C 2py           0.90457
pop of  9 C 2pz           0.91020
pop of  10 C 1s           1.99117
pop of  10 C 2s           1.15348
pop of  10 C 2px          0.99605
pop of  10 C 2py          0.96244
pop of  10 C 2pz          0.96956
pop of  11 C 1s           1.99121
pop of  11 C 2s           1.14956
pop of  11 C 2px          0.97587
pop of  11 C 2py          0.95343
pop of  11 C 2pz          0.97428
pop of  12 C 1s           1.99098
pop of  12 C 2s           1.14134
pop of  12 C 2px          0.97018
pop of  12 C 2py          0.92998
pop of  12 C 2pz          0.93804
pop of  13 C 1s           1.99033
pop of  13 C 2s           1.07149
pop of  13 C 2px          1.03462
pop of  13 C 2py          0.97613
pop of  13 C 2pz          0.98068
pop of  14 C 1s           1.99114
pop of  14 C 2s           1.19447
pop of  14 C 2px          1.02361
pop of  14 C 2py          0.91104
pop of  14 C 2pz          0.96904
pop of  15 C 1s           1.99151
pop of  15 C 2s           1.14234
pop of  15 C 2px          0.96525
pop of  15 C 2py          0.94170
pop of  15 C 2pz          0.95612
pop of  16 C 1s           1.99125
pop of  16 C 2s           1.18049
pop of  16 C 2px          0.94725
pop of  16 C 2py          0.96629
pop of  16 C 2pz          0.90027
pop of  17 C 1s           1.99084
pop of  17 C 2s           1.02886
pop of  17 C 2px          1.03311
pop of  17 C 2py          1.03827
pop of  17 C 2pz          0.97804
pop of  18 C 1s           1.99133
pop of  18 C 2s           1.16131
pop of  18 C 2px          1.00737
pop of  18 C 2py          0.95912
pop of  18 C 2pz          0.93590
pop of  19 C 1s           1.99133
pop of  19 C 2s           1.15223
pop of  19 C 2px          0.95722
pop of  19 C 2py          0.97117
pop of  19 C 2pz          0.99443
pop of  20 C 1s           1.99083
pop of  20 C 2s           1.09140
pop of  20 C 2px          0.98597
pop of  20 C 2py          0.99573
pop of  20 C 2pz          1.00054
pop of  21 C 1s           1.99122
pop of  21 C 2s           1.16046
pop of  21 C 2px          1.00478
pop of  21 C 2py          0.94954
pop of  21 C 2pz          0.96989
pop of  22 H 1s           0.90097
pop of  23 H 1s           0.91101
pop of  24 H 1s           0.89541
pop of  25 H 1s           0.95764
pop of  26 H 1s           0.89227
pop of  27 H 1s           0.93560
pop of  28 H 1s           0.92618
pop of  29 H 1s           0.95064
pop of  30 H 1s           0.89598
pop of  31 H 1s           0.96544
pop of  32 H 1s           0.97715
pop of  33 H 1s           0.91471
pop of  34 H 1s           0.94195
pop of  35 H 1s           0.89285
 ** Mulliken atomic charges  **
charge of    0C =      0.02026
charge of    1C =     -0.01718
charge of    2C =     -0.12928
charge of    3C =     -0.07441
charge of    4C =     -0.11407
charge of    5C =     -0.02943
charge of    6C =     -0.08495
charge of    7C =     -0.05120
charge of    8C =     -0.02808
charge of    9C =      0.00960
charge of   10C =     -0.07269
charge of   11C =     -0.04436
charge of   12C =      0.02949
charge of   13C =     -0.05325
charge of   14C =     -0.08930
charge of   15C =      0.00309
charge of   16C =      0.01446
charge of   17C =     -0.06911
charge of   18C =     -0.05503
charge of   19C =     -0.06638
charge of   20C =     -0.06447
charge of   21C =     -0.07589
charge of   22H =      0.09903
charge of   23H =      0.08899
charge of   24H =      0.10459
charge of   25H =      0.04236
charge of   26H =      0.10773
charge of   27H =      0.06440
charge of   28H =      0.07382
charge of   29H =      0.04936
charge of   30H =      0.10402
charge of   31H =      0.03456
charge of   32H =      0.02285
charge of   33H =      0.08529
charge of   34H =      0.05805
charge of   35H =      0.10715
Dipole moment(X, Y, Z, Debye): -0.16676, -0.10241,  0.00358
nelec by numeric integration = 145.9999948094032
    CPU time for vxc     37.70 sec, wall time     15.64 sec
E1 = -4085.5985730201737  Ecoul = 1887.7603953122018  Exc = -124.48096926990564
nelec by numeric integration = 145.9999948094032
    CPU time for vxc     37.97 sec, wall time     15.68 sec
E1 = -4085.5985730201737  Ecoul = 1887.7603953122018  Exc = -124.48096926990564
