System: uname_result(system='Linux', node='cosmopc18', release='5.15.0-97-generic', version='#107-Ubuntu SMP Wed Feb 7 13:26:48 UTC 2024', machine='x86_64')  Threads 4
Python 3.11.8 (main, Feb 26 2024, 21:39:34) [GCC 11.2.0]
numpy 1.26.4  scipy 1.11.4
Date: Tue Apr  9 12:06:02 2024
PySCF version 2.3.0
PySCF path  /home/saade/miniconda3/envs/tutorial/lib/python3.11/site-packages/pyscf

[ENV] PYSCFAD_BACKEND torch
[CONFIG] conf_file None
[INPUT] verbose = 5
[INPUT] max_memory = 4000 
[INPUT] num. atoms = 36
[INPUT] num. electrons = 146
[INPUT] charge = 0
[INPUT] spin (= nelec alpha-beta = 2S) = 0
[INPUT] symmetry False subgroup None
[INPUT] Mole.unit = angstrom
[INPUT] Symbol           X                Y                Z      unit          X                Y                Z       unit  Magmom
[INPUT]  1 C     -0.070689000000   3.792418000000   0.738711000000 AA   -0.133582850019   7.166631369871   1.395961475204 Bohr   0.0
[INPUT]  2 C     -0.132032000000   3.691883000000  -0.782411000000 AA   -0.249504319679   6.976647753938  -1.478542506847 Bohr   0.0
[INPUT]  3 C     -0.132395000000   4.954154000000   1.532302000000 AA   -0.250190290262   9.361994238918   2.895631120123 Bohr   0.0
[INPUT]  4 C      0.080325000000   2.561354000000   1.393451000000 AA    0.151792250956   4.840257568059   2.633240758001 Bohr   0.0
[INPUT]  5 C      0.025365000000   4.841334000000  -1.576785000000 AA    0.047932903150   9.148795337545  -2.979691807322 Bohr   0.0
[INPUT]  6 C     -0.152289000000   2.468554000000  -1.504654000000 AA   -0.287784501784   4.664890983700  -2.843383972231 Bohr   0.0
[INPUT]  7 C     -0.073724000000   6.211399000000  -0.686513000000 AA   -0.139318168807  11.737842960397  -1.297321550954 Bohr   0.0
[INPUT]  8 C      0.131723000000   6.080875000000   0.610299000000 AA    0.248920394306  11.491188347715   1.153297964096 Bohr   0.0
[INPUT]  9 C     -0.066092000000   1.180550000000   0.828237000000 AA   -0.124895779025   2.230916176355   1.565141096231 Bohr   0.0
[INPUT] 10 C     -0.150968000000   1.308156000000  -0.833639000000 AA   -0.285288173573   2.472056568207  -1.575349396756 Bohr   0.0
[INPUT] 11 C      0.038911000000  -0.008942000000   1.560013000000 AA    0.073531133233  -0.016897931006   2.947997320761 Bohr   0.0
[INPUT] 12 C     -0.058014000000   0.126962000000  -1.261603000000 AA   -0.109630571391   0.239923408227  -2.384084147930 Bohr   0.0
[INPUT] 13 C     -0.052443000000  -1.329804000000   0.798992000000 AA   -0.099102907151  -2.512965359351   1.509876055718 Bohr   0.0
[INPUT] 14 C      0.072798000000  -1.324285000000  -0.712168000000 AA    0.137568282416  -2.502535960870  -1.345802474679 Bohr   0.0
[INPUT] 15 C      0.096831000000  -2.602259000000   1.307314000000 AA    0.182984070368  -4.917556815185   2.470465418810 Bohr   0.0
[INPUT] 16 C     -0.195477000000  -2.593435000000  -1.463734000000 AA   -0.369397993652  -4.900881871861  -2.766056379214 Bohr   0.0
[INPUT] 17 C      0.012227000000  -3.788473000000   0.558048000000 AA    0.023105681325  -7.159176400309   1.054557884361 Bohr   0.0
[INPUT] 18 C      0.124707000000  -3.622388000000  -0.752806000000 AA    0.235662075816  -6.845321236911  -1.422597164929 Bohr   0.0
[INPUT] 19 C      0.071492000000  -4.813623000000   1.254805000000 AA    0.135100300097  -9.096429136907   2.371237789735 Bohr   0.0
[INPUT] 20 C     -0.015068000000  -5.123916000000  -1.360866000000 AA   -0.028474393245  -9.682797925277  -2.571664032232 Bohr   0.0
[INPUT] 21 C      0.128899000000  -6.001522000000   0.668415000000 AA    0.243583807730 -11.341232910552   1.263121287551 Bohr   0.0
[INPUT] 22 C      0.011548000000  -5.909861000000  -0.638994000000 AA    0.021822557286 -11.168018724248  -1.207523655240 Bohr   0.0
[INPUT] 23 H     -0.029764000000   4.911056000000   2.725789000000 AA   -0.056245808372   9.280550822402   5.150994683352 Bohr   0.0
[INPUT] 24 H     -0.194279000000   2.579384000000   2.546650000000 AA   -0.367134101754   4.874329330085   4.812471035124 Bohr   0.0
[INPUT] 25 H      0.013961000000   4.956792000000  -2.476551000000 AA    0.026382466425   9.366979336435  -4.680003123518 Bohr   0.0
[INPUT] 26 H     -0.026575000000   2.564869000000  -2.556830000000 AA   -0.050219471760   4.846899955387  -4.831708447072 Bohr   0.0
[INPUT] 27 H     -0.026518000000   7.088739000000  -1.250949000000 AA   -0.050111757371  13.395775278523  -2.363951005799 Bohr   0.0
[INPUT] 28 H      0.019063000000   7.242656000000   1.212764000000 AA    0.036023849113  13.686636254438   2.291791813732 Bohr   0.0
[INPUT] 29 H      0.068961000000  -0.133570000000   2.473709000000 AA    0.130317403276  -0.252410718458   4.674632521872 Bohr   0.0
[INPUT] 30 H      0.151874000000   0.050141000000  -2.445650000000 AA    0.287000265442   0.094752757612  -4.621608696543 Bohr   0.0
[INPUT] 31 H      0.060810000000  -2.501142000000   2.463212000000 AA    0.114914245635  -4.726473378647   4.654796066742 Bohr   0.0
[INPUT] 32 H      0.054852000000  -2.465784000000  -2.568521000000 AA    0.103655257385  -4.659656442335  -4.853801235194 Bohr   0.0
[INPUT] 33 H      0.010879000000  -4.897258000000   2.421034000000 AA    0.020558330509  -9.254476381335   4.575091198260 Bohr   0.0
[INPUT] 34 H      0.099403000000  -5.018999000000  -2.660544000000 AA    0.187844445960  -9.484533529466  -5.027699502355 Bohr   0.0
[INPUT] 35 H     -0.238629000000  -7.054123000000   1.187375000000 AA   -0.450943455379 -13.330360518995   2.243813557155 Bohr   0.0
[INPUT] 36 H      0.095398000000  -7.013155000000  -1.133092000000 AA    0.180276092831 -13.252942219124  -2.141233553936 Bohr   0.0
[INPUT] ---------------- BASIS SET ---------------- 
[INPUT] l, kappa, [nprim/nctr], expnt,             c_1 c_2 ...
[INPUT] H
[INPUT] 0    0    [3    /1   ]  3.42525091        0.15432897
                                0.62391373        0.53532814
                                0.1688554         0.44463454
[INPUT] C
[INPUT] 0    0    [3    /1   ]  71.616837         0.15432897
                                13.045096         0.53532814
                                3.5305122         0.44463454
[INPUT] 0    0    [3    /1   ]  2.9412494         -0.09996723
                                0.6834831         0.39951283
                                0.2222899         0.70011547
[INPUT] 1    0    [3    /1   ]  2.9412494         0.15591627
                                0.6834831         0.60768372
                                0.2222899         0.39195739

nuclear repulsion = 1491.19979534468
number of shells = 80
number of NR pGTOs = 372
number of NR cGTOs = 124
basis = sto3g
ecp = {}
CPU time:     21131.91
atom C rad-grids = 99, ang-grids = [ 50  50  50  50  50  50  50  50  50  50  50  50  50  50  50  50  50  50
  50  50  50  50  50  50  50  50  50  50  50  50  50  86  86  86  86  86
  86  86  86  86  86  86  86 434 434 434 434 434 434 434 434 434 590 590
 590 590 590 590 590 590 590 590 590 590 590 590 590 590 590 590 590 590
 590 590 590 590 590 590 590 434 434 434 434 434 434 434 434 434 434 434
 434 434 434 434 434 434 434 434 434]
atom H rad-grids = 99, ang-grids = [ 50  50  50  50  50  50  50  50  50  50  50  50  50  50  50  50  50  50
  50  50  50  50  50  50  50  50  50  50  86  86  86  86  86  86  86 434
 434 434 434 434 434 434 434 590 590 590 590 590 590 590 590 590 590 590
 590 590 590 590 590 590 590 590 590 590 590 590 590 590 590 434 434 434
 434 434 434 434 434 434 434 434 434 434 434 434 434 434 434 434 434 434
 434 434 434 434 434 434 434 434 434]
tot_boxes 5440, boxes in each direction [ 8 30 15]
Padding 0 grids
tot grids = 1157832


******** <class 'pyscf.dft.rks.RKS'> ********
method = RKS
initial guess = minao
damping factor = 0
level_shift factor = 0
DIIS = <class 'pyscf.scf.diis.CDIIS'>
diis_start_cycle = 1
diis_space = 8
SCF conv_tol = 1e-10
SCF conv_tol_grad = None
SCF max_cycles = 50
direct_scf = True
direct_scf_tol = 1e-13
chkfile to save SCF result = /home/saade/mlelec/tutorials/tmpswsil_1p
max_memory 4000 MB (current use 637 MB)
XC library pyscf.dft.libxc version 6.1.0
    S. Lehtola, C. Steigemann, M. J.T. Oliveira, and M. A.L. Marques.,  SoftwareX 7, 1–5 (2018)
XC functionals = b3lypg
    P. J. Stephens, F. J. Devlin, C. F. Chabalowski, and M. J. Frisch.,  J. Phys. Chem. 98, 11623 (1994)
radial grids: 
    Treutler-Ahlrichs [JCP 102, 346 (1995); DOI:10.1063/1.469408] (M4) radial grids
    
becke partition: Becke, JCP 88, 2547 (1988); DOI:10.1063/1.454033
pruning grids: <function nwchem_prune at 0x7f9db5616ca0>
grids dens level: 3
symmetrized grids: False
atomic radii adjust function: <function treutler_atomic_radii_adjust at 0x7f9db5617380>
User specified grid scheme (99, 590)
small_rho_cutoff = 1e-07
Set gradient conv threshold to 1e-05
Initial guess from minao.
nelec by numeric integration = 145.27113377110757
    CPU time for vxc     36.92 sec, wall time     15.48 sec
E1 = -4082.6817887254724  Ecoul = 1876.1967297735207  Exc = -125.95358590285983
init E= -841.238849510136
cond(S) = 35.80662370490105
    CPU time for initialize scf     46.68 sec, wall time     17.83 sec
  HOMO = -0.199178455060209  LUMO = -0.159961761136678
  mo_energy =
[-1.01758411e+01 -1.01440151e+01 -1.01411600e+01 -1.01222373e+01
 -1.01216474e+01 -1.01142248e+01 -1.01095685e+01 -1.01077511e+01
 -1.01055068e+01 -1.01031109e+01 -1.00990759e+01 -1.00978760e+01
 -1.00942933e+01 -1.00941766e+01 -1.00922025e+01 -1.00917261e+01
 -1.00857655e+01 -1.00838763e+01 -1.00827991e+01 -1.00792380e+01
 -1.00791555e+01 -1.00760369e+01 -1.13883437e+00 -1.05285978e+00
 -1.02760278e+00 -9.89943266e-01 -9.58703550e-01 -9.42554755e-01
 -9.07766329e-01 -8.95387026e-01 -8.55756410e-01 -8.47817089e-01
 -7.90805013e-01 -7.67407281e-01 -7.24664851e-01 -6.98464394e-01
 -6.87092016e-01 -6.72848495e-01 -6.59066981e-01 -6.22460751e-01
 -5.87661658e-01 -5.74253692e-01 -5.62717626e-01 -5.51370457e-01
 -5.34591245e-01 -5.22200511e-01 -5.06045742e-01 -4.96335348e-01
 -4.90730538e-01 -4.83999788e-01 -4.81386480e-01 -4.62163666e-01
 -4.51506543e-01 -4.48631022e-01 -4.35403948e-01 -4.30679075e-01
 -4.20266723e-01 -4.14640461e-01 -4.08119314e-01 -3.95459379e-01
 -3.90738559e-01 -3.83655498e-01 -3.65078145e-01 -3.54912691e-01
 -3.46411818e-01 -3.24525355e-01 -3.10986082e-01 -3.02554548e-01
 -2.98670035e-01 -2.86283406e-01 -2.65507072e-01 -2.54133195e-01
 -1.99178455e-01 -1.59961761e-01 -1.05546398e-01 -7.20235296e-02
 -3.72667965e-02 -2.90545804e-02  2.11912122e-03  1.61504496e-02
  5.78135483e-02  6.51358142e-02  8.98549879e-02  9.63781144e-02
  1.17748727e-01  1.38662786e-01  1.40112037e-01  1.60764260e-01
  1.67399218e-01  1.94080561e-01  2.07046133e-01  2.14346122e-01
  2.24658472e-01  2.35856941e-01  2.40818722e-01  2.49581511e-01
  2.53865516e-01  2.74354774e-01  2.83944083e-01  3.10188875e-01
  3.33922749e-01  3.42002931e-01  3.44369510e-01  3.53877167e-01
  3.84913094e-01  4.12474702e-01  4.41766733e-01  4.50336129e-01
  4.57029652e-01  4.94174648e-01  4.97123815e-01  5.15357452e-01
  5.25270199e-01  5.68117957e-01  5.75173325e-01  5.88807008e-01
  6.15005928e-01  6.37677293e-01  6.46517902e-01  6.87552591e-01
  7.19548526e-01  7.54071575e-01  8.07928656e-01  1.08906010e+00]
nelec by numeric integration = 146.00000041048878
    CPU time for vxc     38.36 sec, wall time     15.83 sec
E1 = -4097.975637623474  Ecoul = 1895.794666805649  Exc = -124.63728000663001
cycle= 1 E= -835.618455479779  delta_E= 5.62  |g|= 0.313  |ddm|= 9.26
    CPU time for cycle= 1     38.69 sec, wall time     15.88 sec
  HOMO = -0.0885695492744552  LUMO = -0.0161948121821326
  mo_energy =
[-10.07558903 -10.05161311 -10.03837897 -10.03463395 -10.02166004
 -10.01907967 -10.01151153 -10.00625675  -9.9843289   -9.981759
  -9.9782979   -9.97715451  -9.97369573  -9.97320094  -9.96260594
  -9.95981343  -9.95342876  -9.94752986  -9.94462484  -9.9243926
  -9.92012398  -9.91128564  -0.83403947  -0.82593671  -0.78273949
  -0.76160349  -0.74310878  -0.72740722  -0.7190689   -0.70045147
  -0.67638822  -0.6475335   -0.63349188  -0.61172124  -0.57272583
  -0.55951599  -0.5464239   -0.53468372  -0.5054479   -0.50009887
  -0.46913915  -0.46233223  -0.44731084  -0.44238085  -0.42923048
  -0.40239526  -0.39707739  -0.3850318   -0.37491869  -0.37069884
  -0.36242735  -0.35263639  -0.34690151  -0.34248808  -0.33988418
  -0.33051351  -0.31826001  -0.3033886   -0.29966828  -0.29181869
  -0.28040493  -0.26863558  -0.2582322   -0.2466118   -0.24301696
  -0.22197793  -0.21345461  -0.20416308  -0.18892974  -0.16887425
  -0.16221771  -0.12306728  -0.08856955  -0.01619481   0.05145402
   0.06317481   0.10597394   0.12190826   0.1561999    0.17745058
   0.20331451   0.21197181   0.23301099   0.24916756   0.26649118
   0.28501747   0.29794082   0.30314868   0.32196177   0.32957391
   0.3367394    0.35263207   0.36640947   0.37520869   0.39312523
   0.4089626    0.41830209   0.42396554   0.44526344   0.44793191
   0.46847629   0.48264074   0.49779567   0.52085541   0.53032364
   0.57296735   0.5771745    0.5985901    0.61850034   0.62421254
   0.62787761   0.67539711   0.69158779   0.71649828   0.72286403
   0.75417934   0.76691076   0.80330707   0.81999141   0.83618079
   0.91468599   0.94282595   1.00958716   1.33085918]
nelec by numeric integration = 146.0000003639081
    CPU time for vxc     38.28 sec, wall time     15.78 sec
E1 = -4092.191072292959  Ecoul = 1889.8947642696567  Exc = -124.4662217471685
cycle= 2 E= -835.562734425795  delta_E= 0.0557  |g|= 0.477  |ddm|= 1.42
    CPU time for cycle= 2     38.87 sec, wall time     15.87 sec
  HOMO = -0.096652889589025  LUMO = -0.0243560514992666
  mo_energy =
[-10.04319204 -10.03704086 -10.03384763 -10.03351577 -10.0230548
 -10.01699637 -10.01213847 -10.00834299 -10.00788121 -10.00786635
 -10.00547256 -10.00412082 -10.00236285 -10.00197555  -9.99888236
  -9.99501706  -9.99360527  -9.99206728  -9.98620057  -9.97648166
  -9.97400273  -9.95328704  -0.87609517  -0.82789698  -0.80253425
  -0.78313511  -0.75567348  -0.74298363  -0.72018434  -0.7186335
  -0.6813203   -0.67389946  -0.64660714  -0.61245057  -0.58958737
  -0.57056401  -0.55477363  -0.54902913  -0.5280064   -0.50424917
  -0.47858019  -0.46815146  -0.45818635  -0.45118383  -0.43657292
  -0.42459963  -0.39889689  -0.39491585  -0.38603843  -0.38199682
  -0.37973876  -0.36966386  -0.35897781  -0.35507238  -0.34309013
  -0.33461505  -0.33062091  -0.3232449   -0.31497102  -0.29994406
  -0.29580303  -0.28531079  -0.272417    -0.25025348  -0.24348173
  -0.24099068  -0.22064382  -0.20831564  -0.2076343   -0.19718109
  -0.16259879  -0.15114132  -0.09665289  -0.02435605   0.03121026
   0.06748617   0.0962902    0.1152894    0.14465399   0.1655755
   0.20046719   0.2036099    0.22938961   0.234041     0.24377138
   0.27500269   0.27862332   0.30282599   0.31758059   0.32159101
   0.3433581    0.35404283   0.36123004   0.37765777   0.38182541
   0.38745659   0.39160822   0.41852657   0.42642733   0.44335045
   0.45764033   0.47901118   0.48613813   0.50717217   0.50941504
   0.5539051    0.5785281    0.5844264    0.6036836    0.62502278
   0.64978645   0.67032669   0.67715697   0.70475408   0.72258336
   0.72677785   0.75229728   0.7886275    0.79438106   0.80721369
   0.87405888   0.89083244   0.96595368   1.26794136]
nelec by numeric integration = 146.00000037846414
    CPU time for vxc     37.47 sec, wall time     15.67 sec
E1 = -4094.0596884382003  Ecoul = 1891.753054028609  Exc = -124.50709421104094
cycle= 3 E= -835.613933275957  delta_E= -0.0512  |g|= 0.327  |ddm|=  1.5
    CPU time for cycle= 3     37.92 sec, wall time     15.74 sec
  HOMO = -0.100863921801196  LUMO = -0.0346857754164512
  mo_energy =
[-10.03710079 -10.02934012 -10.02732042 -10.0256795  -10.02421763
 -10.02282454 -10.02222121 -10.02066675 -10.01939641 -10.01849569
 -10.01697125 -10.01386925 -10.01327776 -10.01220277 -10.01091144
 -10.00985451 -10.0081906  -10.0068144  -10.00671778 -10.00530171
 -10.00382948  -9.99963084  -0.889911    -0.82536137  -0.81222649
  -0.78663201  -0.76610029  -0.75233817  -0.73050445  -0.72031374
  -0.69111495  -0.68433333  -0.64175027  -0.62837928  -0.59231501
  -0.57391758  -0.56287631  -0.55486025  -0.53699028  -0.50699887
  -0.48295346  -0.47371062  -0.46059834  -0.45516101  -0.4397052
  -0.42794955  -0.404795    -0.40183734  -0.3945317   -0.39083955
  -0.38872055  -0.37493461  -0.36961461  -0.36017394  -0.34517803
  -0.3424895   -0.33123845  -0.33001548  -0.32031666  -0.30881133
  -0.30671944  -0.29185495  -0.28097376  -0.25900351  -0.25476588
  -0.24355271  -0.22757801  -0.21742047  -0.20884495  -0.20503117
  -0.17486181  -0.15671876  -0.10086392  -0.03468578   0.02684286
   0.05693257   0.09551392   0.10603568   0.13545741   0.15382165
   0.1958066    0.19676628   0.22549943   0.22589603   0.23915495
   0.27009814   0.27616969   0.29717701   0.30938832   0.31249741
   0.33816015   0.34729222   0.35587222   0.36467229   0.37536668
   0.3862571    0.38908774   0.41082223   0.41420068   0.44052309
   0.46087507   0.475716     0.4785036    0.48869235   0.51471537
   0.55219998   0.5718901    0.58841704   0.59298484   0.61804705
   0.63059093   0.65642976   0.66272967   0.69727208   0.71297649
   0.7245836    0.74573024   0.77983431   0.78381533   0.81302852
   0.86203071   0.897254     0.95238753   1.24877202]
nelec by numeric integration = 146.00000038710445
    CPU time for vxc     37.97 sec, wall time     15.67 sec
E1 = -4094.6109191763467  Ecoul = 1892.2732274219866  Exc = -124.52072319616009
cycle= 4 E= -835.658619605845  delta_E= -0.0447  |g|= 0.0677  |ddm|= 0.752
    CPU time for cycle= 4     38.40 sec, wall time     15.74 sec
  HOMO = -0.104117893473855  LUMO = -0.0366608236331273
  mo_energy =
[-10.03853564 -10.03543417 -10.03176777 -10.0281293  -10.02772896
 -10.0269321  -10.02275942 -10.02010155 -10.01990659 -10.01882054
 -10.01870898 -10.01571616 -10.01553188 -10.0147555  -10.01400271
 -10.01324997 -10.01215383 -10.01134467 -10.00934498 -10.00744657
 -10.00397744 -10.00142532  -0.88420035  -0.83023397  -0.81241761
  -0.79011128  -0.76348628  -0.75396577  -0.73389329  -0.72495512
  -0.69158101  -0.68423421  -0.64547155  -0.63008532  -0.59318942
  -0.57503906  -0.56370663  -0.55805181  -0.53549593  -0.50981212
  -0.48229173  -0.47442053  -0.4622357   -0.45846962  -0.4420362
  -0.42865097  -0.40668714  -0.40163382  -0.39406844  -0.38991753
  -0.38676399  -0.3775068   -0.37020257  -0.36255241  -0.34744313
  -0.34452778  -0.33552275  -0.32880688  -0.3222718   -0.31083412
  -0.30592742  -0.29344498  -0.2836066   -0.26007877  -0.25471987
  -0.24890423  -0.23047697  -0.2208195   -0.21378647  -0.20203089
  -0.17801723  -0.15734539  -0.10411789  -0.03666082   0.02504236
   0.05345842   0.09047839   0.10530062   0.13296756   0.15322921
   0.19320284   0.20023908   0.22198748   0.22739446   0.23516722
   0.27199372   0.27375111   0.29773979   0.30689539   0.31160201
   0.33317966   0.34878005   0.35445402   0.36466652   0.37105256
   0.38332496   0.38632458   0.4104506    0.4170081    0.44018884
   0.45586846   0.47201956   0.47894115   0.48986108   0.50960584
   0.54721107   0.56973176   0.58194865   0.59346308   0.61311611
   0.62876678   0.65582775   0.66748331   0.69261669   0.71521388
   0.71908111   0.74230587   0.7781322    0.78604494   0.8056649
   0.8667077    0.8929463    0.95773834   1.25648186]
nelec by numeric integration = 146.00000038399693
    CPU time for vxc     38.35 sec, wall time     15.73 sec
E1 = -4094.8254799862716  Ecoul = 1892.4872167704175  Exc = -124.52172734281316
cycle= 5 E= -835.660195213992  delta_E= -0.00158  |g|= 0.0254  |ddm|= 0.148
    CPU time for cycle= 5     38.81 sec, wall time     15.80 sec
  HOMO = -0.103575106283362  LUMO = -0.0352603948756835
  mo_energy =
[-10.03572735 -10.03205176 -10.02908583 -10.02887137 -10.02673005
 -10.0243329  -10.01899539 -10.01816071 -10.01736367 -10.01612303
 -10.01395271 -10.01376207 -10.01301797 -10.01271228 -10.01257679
 -10.01188574 -10.01128698 -10.01030678 -10.006524   -10.00593878
 -10.00589531 -10.00404574  -0.88359052  -0.82833271  -0.81057178
  -0.78825367  -0.76223135  -0.75301498  -0.73261777  -0.72323757
  -0.69027403  -0.68290448  -0.64416985  -0.62907045  -0.59170317
  -0.5738509   -0.5626653   -0.55659906  -0.53474415  -0.5085908
  -0.4815608   -0.47351683  -0.46129311  -0.45718609  -0.44095416
  -0.42782252  -0.40533297  -0.40056369  -0.39311882  -0.38909543
  -0.38604375  -0.37640697  -0.36939906  -0.36104156  -0.34593292
  -0.34378927  -0.334297    -0.32833666  -0.32082048  -0.30966318
  -0.30511415  -0.29215621  -0.28194982  -0.25899844  -0.25342863
  -0.24782498  -0.22903164  -0.2193332   -0.21214248  -0.20182582
  -0.17639588  -0.15605078  -0.10357511  -0.03526039   0.02673647
   0.05505244   0.09208538   0.10636511   0.13455433   0.15425851
   0.19487437   0.200299     0.2229726    0.22832134   0.23645302
   0.27256301   0.27501956   0.29895813   0.30801543   0.312992
   0.33454508   0.34973324   0.35584571   0.36494371   0.37224078
   0.38594485   0.38837217   0.41169145   0.41699976   0.4415923
   0.45724198   0.47306114   0.47971397   0.49071301   0.51120823
   0.55039265   0.57032855   0.5837844    0.59463401   0.61470507
   0.63028763   0.65752792   0.66752947   0.69383093   0.71645286
   0.72080391   0.74367959   0.77928218   0.78692654   0.80685263
   0.86725872   0.89552048   0.9582995    1.25714444]
nelec by numeric integration = 146.00000038164137
    CPU time for vxc     37.54 sec, wall time     15.55 sec
E1 = -4094.6381093314044  Ecoul = 1892.296875886165  Exc = -124.51895287904725
cycle= 6 E= -835.660390979611  delta_E= -0.000196  |g|= 0.0104  |ddm|= 0.0506
    CPU time for cycle= 6     38.02 sec, wall time     15.62 sec
  HOMO = -0.103315693183217  LUMO = -0.0347838779544802
  mo_energy =
[-10.03432334 -10.03115184 -10.03005296 -10.02953947 -10.02540099
 -10.02336933 -10.01953859 -10.01851566 -10.01706748 -10.01570934
 -10.01554914 -10.01396713 -10.01255326 -10.01214096 -10.01200414
 -10.01160821 -10.0101685  -10.00995549 -10.00785231 -10.00600245
 -10.00468868 -10.00430936  -0.88400702  -0.82793034  -0.81076652
  -0.78814385  -0.76266292  -0.75260257  -0.73204501  -0.72299949
  -0.69021346  -0.6830502   -0.64387633  -0.62861929  -0.59181004
  -0.57380495  -0.56247425  -0.55643237  -0.53488634  -0.50836067
  -0.48152243  -0.47345995  -0.46093371  -0.4570392   -0.440756
  -0.42770462  -0.40513216  -0.40087841  -0.39312888  -0.38927268
  -0.38640603  -0.37605132  -0.36929009  -0.36121679  -0.34550235
  -0.34367618  -0.33394149  -0.3283571   -0.32096446  -0.30929529
  -0.30520335  -0.29218233  -0.28200389  -0.25881839  -0.25366377
  -0.24728164  -0.22895438  -0.2191425   -0.2118783   -0.20209932
  -0.17622081  -0.15625722  -0.10331569  -0.03478388   0.02661737
   0.05537419   0.09253764   0.10640982   0.1345933    0.15442958
   0.19497119   0.20008613   0.22335204   0.22809042   0.23685815
   0.27248289   0.27499347   0.29853715   0.30848085   0.31280119
   0.33532724   0.34953435   0.35566896   0.36539274   0.37271277
   0.38539047   0.3877176    0.41171529   0.4168653    0.44122617
   0.45775694   0.47399415   0.47969104   0.49077031   0.51157841
   0.54997372   0.57107084   0.58438502   0.59432646   0.61522856
   0.63060286   0.65740518   0.66751302   0.69471374   0.71592704
   0.7212194    0.74409477   0.7794335    0.78678555   0.80784724
   0.86672583   0.89500917   0.9577812    1.2569744 ]
nelec by numeric integration = 146.0000003830082
    CPU time for vxc     38.39 sec, wall time     15.79 sec
E1 = -4094.654208199183  Ecoul = 1892.3124724902414  Exc = -124.51849104650302
cycle= 7 E= -835.660431410769  delta_E= -4.04e-05  |g|= 0.00241  |ddm|= 0.0187
    CPU time for cycle= 7     38.85 sec, wall time     15.86 sec
  HOMO = -0.103292267596156  LUMO = -0.0347008070774489
  mo_energy =
[-10.03473754 -10.03148353 -10.0297784  -10.02947557 -10.02550764
 -10.02291071 -10.01950675 -10.01867043 -10.01709259 -10.01553556
 -10.01547716 -10.01401204 -10.01260903 -10.01255551 -10.01191534
 -10.0114424  -10.01033405 -10.00977893 -10.00767868 -10.00550111
 -10.00476487 -10.00438047  -0.8840473   -0.82794401  -0.81078542
  -0.7881001   -0.7626798   -0.75258424  -0.73206313  -0.72297158
  -0.69018312  -0.68305283  -0.64386033  -0.62860328  -0.59181757
  -0.57380465  -0.56243918  -0.5564479   -0.53486556  -0.50833916
  -0.48153341  -0.47345102  -0.46095831  -0.45700297  -0.44074016
  -0.42773551  -0.40510669  -0.40085347  -0.39307733  -0.38926566
  -0.38639039  -0.37606722  -0.36926035  -0.36116182  -0.34551795
  -0.34368123  -0.3339496   -0.32839257  -0.32094098  -0.30933073
  -0.30522152  -0.29217528  -0.28196417  -0.25881786  -0.25362643
  -0.24725835  -0.22889595  -0.2191133   -0.21186824  -0.20211604
  -0.17616848  -0.15624894  -0.10329227  -0.03470081   0.02664444
   0.05541168   0.09250946   0.10644122   0.13461455   0.15446163
   0.19501455   0.20000719   0.22337685   0.2280545    0.23686457
   0.27247008   0.27501165   0.29858695   0.3084735    0.31286499
   0.33529535   0.34953994   0.35571814   0.36539714   0.37274725
   0.3855038    0.38787045   0.41175127   0.41684114   0.44125238
   0.45776401   0.47387593   0.47963469   0.49077455   0.51156775
   0.55002709   0.57104138   0.58434003   0.59439236   0.61524781
   0.63063648   0.65744951   0.6674504    0.69464109   0.71603075
   0.72125411   0.74409986   0.77948728   0.78679853   0.80777814
   0.86679802   0.89516395   0.95780472   1.25666573]
nelec by numeric integration = 146.00000038256815
    CPU time for vxc     38.45 sec, wall time     15.80 sec
E1 = -4094.653897208662  Ecoul = 1892.3121823410777  Exc = -124.51851374027886
cycle= 8 E= -835.660433263188  delta_E= -1.85e-06  |g|= 0.000891  |ddm|= 0.00391
    CPU time for cycle= 8     38.80 sec, wall time     15.86 sec
  HOMO = -0.103330122180173  LUMO = -0.0347078954267695
  mo_energy =
[-10.03466294 -10.03138242 -10.02972114 -10.02951148 -10.02551253
 -10.02311579 -10.01951448 -10.01869742 -10.01705403 -10.01570617
 -10.01543711 -10.01401864 -10.01261564 -10.01259361 -10.01199301
 -10.01145846 -10.01037803 -10.00978778 -10.00766858 -10.0056073
 -10.00462686 -10.00441809  -0.88405231  -0.82795954  -0.81079101
  -0.78812703  -0.76268269  -0.75259502  -0.73205849  -0.72299651
  -0.69018998  -0.68305981  -0.64389264  -0.62860826  -0.59183208
  -0.5738122   -0.56244262  -0.55645692  -0.53487075  -0.50834819
  -0.48154998  -0.47347206  -0.46096008  -0.45703107  -0.44075807
  -0.42774168  -0.40511806  -0.40085827  -0.39309149  -0.38926633
  -0.38639171  -0.3760796   -0.36926446  -0.36116226  -0.34553549
  -0.34368321  -0.3339557   -0.32839363  -0.32094301  -0.30932253
  -0.30522703  -0.29219057  -0.28195838  -0.25882142  -0.25363087
  -0.24726652  -0.2288974   -0.21911     -0.21188295  -0.2021113
  -0.17617409  -0.15625839  -0.10333012  -0.0347079    0.02663638
   0.05540015   0.09249846   0.10643493   0.13461158   0.15446066
   0.19499726   0.20001654   0.22337406   0.22805914   0.236856
   0.27246376   0.27500066   0.29858444   0.3084693    0.31286169
   0.33528169   0.34954269   0.35571301   0.36542952   0.37273025
   0.38549489   0.38785941   0.41176719   0.41683765   0.44124287
   0.45771135   0.47387684   0.47963738   0.49078839   0.5115304
   0.55001506   0.57103879   0.58430456   0.59438386   0.61521911
   0.63064887   0.65745419   0.66743808   0.69463902   0.71602989
   0.72122621   0.74408071   0.7794691    0.78676867   0.80774367
   0.86679507   0.89511408   0.95780107   1.25667652]
nelec by numeric integration = 146.0000003826188
    CPU time for vxc     37.87 sec, wall time     15.66 sec
E1 = -4094.654033828657  Ecoul = 1892.3123593174632  Exc = -124.5185543768191
cycle= 9 E= -835.660433543338  delta_E= -2.8e-07  |g|= 0.000324  |ddm|= 0.0015
    CPU time for cycle= 9     38.44 sec, wall time     15.75 sec
  HOMO = -0.103345458468581  LUMO = -0.0347186139395207
  mo_energy =
[-10.03469041 -10.03138922 -10.0297593  -10.0295218  -10.02552571
 -10.0230563  -10.01950918 -10.0186956  -10.01707172 -10.01570791
 -10.01548528 -10.01402003 -10.01261721 -10.01255045 -10.01200418
 -10.01148003 -10.01043589 -10.00981074 -10.00770551 -10.0056431
 -10.00468326 -10.00440438  -0.88405378  -0.82797374  -0.81079877
  -0.78813442  -0.76268615  -0.75260966  -0.73207328  -0.72301043
  -0.69020167  -0.68306752  -0.64390722  -0.62861679  -0.5918429
  -0.57382447  -0.56245151  -0.55647068  -0.53487636  -0.50835941
  -0.48155365  -0.47347645  -0.46096924  -0.45703673  -0.44076639
  -0.42774781  -0.4051265   -0.40086386  -0.39309864  -0.38927303
  -0.38639649  -0.37608494  -0.36926448  -0.3611742   -0.34554693
  -0.34368649  -0.33396913  -0.32839354  -0.32095159  -0.30933449
  -0.30522855  -0.29219375  -0.28197435  -0.25883313  -0.25364258
  -0.24727457  -0.22891114  -0.21912516  -0.21189699  -0.20211157
  -0.17618712  -0.15626862  -0.10334546  -0.03471861   0.02662361
   0.05538771   0.0924818    0.10642444   0.13460141   0.15444506
   0.19498992   0.20002446   0.22337048   0.22805758   0.23684884
   0.27246139   0.27498911   0.29857356   0.30846974   0.31285255
   0.33527706   0.34953837   0.35570123   0.36541932   0.37272576
   0.38547692   0.38784364   0.41175093   0.41683788   0.44123597
   0.45771335   0.47385636   0.47963749   0.49078016   0.51152012
   0.54999565   0.57102353   0.58428941   0.59437082   0.61521277
   0.63063712   0.65743808   0.6674416    0.69462688   0.71601255
   0.72121477   0.74406765   0.77945222   0.78676427   0.80772242
   0.86678311   0.89509562   0.95779273   1.25670568]
nelec by numeric integration = 146.00000038259532
    CPU time for vxc     38.13 sec, wall time     15.81 sec
E1 = -4094.655489354911  Ecoul = 1892.3138258078984  Exc = -124.51856537479868
cycle= 10 E= -835.660433577136  delta_E= -3.38e-08  |g|= 0.000129  |ddm|= 0.000566
    CPU time for cycle= 10     38.60 sec, wall time     15.89 sec
  HOMO = -0.103344869154694  LUMO = -0.0347190375587392
  mo_energy =
[-10.0347003  -10.03140515 -10.02977671 -10.02953532 -10.02551428
 -10.02306287 -10.01951462 -10.01869866 -10.01708656 -10.01572427
 -10.01548294 -10.01401782 -10.01262905 -10.01256433 -10.01200141
 -10.01147231 -10.01041498 -10.00979406 -10.00769098 -10.00565801
 -10.00466845 -10.00443502  -0.88406092  -0.82797791  -0.81080181
  -0.78814033  -0.7626925   -0.7526067   -0.73207282  -0.72301241
  -0.69019894  -0.68307303  -0.64390864  -0.62861547  -0.59184588
  -0.57382578  -0.56245044  -0.55647123  -0.53487831  -0.50836042
  -0.4815563   -0.4734771   -0.46096976  -0.45703814  -0.44076646
  -0.42775162  -0.40512992  -0.40086804  -0.39309993  -0.38927548
  -0.38640012  -0.37608679  -0.36926533  -0.36117625  -0.3455497
  -0.34368876  -0.33397124  -0.32839709  -0.32095633  -0.30933372
  -0.30523316  -0.29219939  -0.28197307  -0.25883301  -0.25364494
  -0.24727658  -0.22891231  -0.21912549  -0.21189923  -0.20211747
  -0.17618425  -0.15627373  -0.10334487  -0.03471904   0.02662029
   0.05538842   0.09248085   0.10642083   0.13459814   0.15444747
   0.19498471   0.20001647   0.22336786   0.22805195   0.23684658
   0.27245685   0.27498481   0.29856913   0.30846754   0.31285137
   0.33527706   0.3495342    0.35570142   0.36542402   0.37272403
   0.38547369   0.38783793   0.41175412   0.41683385   0.44123161
   0.4577122    0.47385935   0.479634     0.49078112   0.51151723
   0.54999288   0.57102953   0.58428688   0.59436993   0.61521194
   0.63063854   0.65744076   0.66743366   0.69462878   0.71601036
   0.72120946   0.74406665   0.7794552    0.78675876   0.80772537
   0.86677749   0.89508692   0.95778553   1.25669319]
nelec by numeric integration = 146.00000038258997
    CPU time for vxc     38.26 sec, wall time     15.85 sec
E1 = -4094.655630185537  Ecoul = 1892.3139766434174  Exc = -124.5185753845636
cycle= 11 E= -835.660433582008  delta_E= -4.87e-09  |g|= 7.45e-05  |ddm|= 0.000308
    CPU time for cycle= 11     38.72 sec, wall time     15.93 sec
  HOMO = -0.10334308348507  LUMO = -0.0347152698365447
  mo_energy =
[-10.03469295 -10.03139322 -10.02976753 -10.02952897 -10.02551691
 -10.02305644 -10.01951035 -10.01869488 -10.01707276 -10.01572097
 -10.0154809  -10.01402023 -10.01262139 -10.01256225 -10.01199697
 -10.01147708 -10.01042072 -10.00980104 -10.00769849 -10.00564626
 -10.00465902 -10.00441925  -0.88405742  -0.82797371  -0.8107995
  -0.78813566  -0.76268959  -0.75260587  -0.73206875  -0.72300983
  -0.69019878  -0.68306937  -0.64390629  -0.62861265  -0.59184358
  -0.57382337  -0.56244862  -0.55646896  -0.53487715  -0.50835794
  -0.48155454  -0.4734757   -0.4609678   -0.45703573  -0.44076456
  -0.42774877  -0.40512574  -0.40086589  -0.39309859  -0.38927387
  -0.38639852  -0.37608416  -0.3692628   -0.36117447  -0.34554634
  -0.34368628  -0.33396848  -0.3283949   -0.3209533   -0.3093316
  -0.3052306   -0.29219568  -0.28197173  -0.25883167  -0.25364231
  -0.24727366  -0.2289095   -0.21912274  -0.21189625  -0.20211494
  -0.17618284  -0.15627075  -0.10334308  -0.03471527   0.02662275
   0.05539057   0.09248307   0.10642506   0.13460192   0.15444822
   0.19498896   0.20001876   0.22337042   0.22805408   0.23684931
   0.27245926   0.27498816   0.29857178   0.30847081   0.3128531
   0.33528098   0.34953645   0.35570162   0.36542589   0.37272721
   0.38547632   0.38784014   0.411755     0.4168359    0.4412337
   0.45771506   0.47386141   0.4796356    0.49078199   0.51152037
   0.54999581   0.57102958   0.58428965   0.59437093   0.61521557
   0.63064149   0.6574415    0.6674374    0.69463237   0.71601223
   0.72121455   0.74406898   0.77945497   0.78676329   0.80772755
   0.86678112   0.89509246   0.95778915   1.25669609]
nelec by numeric integration = 146.00000038258543
    CPU time for vxc     38.30 sec, wall time     15.79 sec
E1 = -4094.655383936756  Ecoul = 1892.3137211820529  Exc = -124.51856617390166
cycle= 12 E= -835.66043358393  delta_E= -1.92e-09  |g|= 1.87e-05  |ddm|= 0.000137
    CPU time for cycle= 12     38.85 sec, wall time     15.88 sec
  HOMO = -0.103342409963878  LUMO = -0.0347146019190843
  mo_energy =
[-10.03469267 -10.03139332 -10.02976337 -10.02952788 -10.02551626
 -10.02305682 -10.01951013 -10.01869514 -10.01707419 -10.01571871
 -10.01548093 -10.0140173  -10.01262191 -10.0125601  -10.01199833
 -10.01147133 -10.01042131 -10.0097924  -10.00769213 -10.00564808
 -10.00466047 -10.00441725  -0.88405568  -0.82797324  -0.81079804
  -0.78813536  -0.7626882   -0.75260428  -0.73206889  -0.72300915
  -0.69019697  -0.68306843  -0.64390582  -0.62861204  -0.59184278
  -0.57382276  -0.56244743  -0.55646836  -0.53487547  -0.50835762
  -0.48155366  -0.47347469  -0.46096722  -0.45703536  -0.44076438
  -0.42774832  -0.40512582  -0.40086494  -0.3930971   -0.38927222
  -0.38639713  -0.37608365  -0.36926251  -0.36117375  -0.34554605
  -0.34368559  -0.333968    -0.32839407  -0.32095276  -0.30933056
  -0.30522962  -0.29219504  -0.28197075  -0.25882994  -0.25364132
  -0.24727405  -0.22890905  -0.21912234  -0.21189567  -0.2021141
  -0.17618157  -0.15626946  -0.10334241  -0.0347146    0.02662397
   0.05539134   0.09248378   0.10642534   0.1346023    0.15445023
   0.19498915   0.20001954   0.22337024   0.22805544   0.23684948
   0.27246006   0.27498883   0.29857291   0.30847061   0.31285449
   0.33528043   0.34953747   0.35570279   0.36542613   0.37272716
   0.385477     0.38784073   0.41175627   0.41683682   0.44123417
   0.45771465   0.47386134   0.47963675   0.49078381   0.51152055
   0.54999651   0.57103106   0.58428991   0.59437331   0.61521555
   0.6306428    0.65744341   0.66743905   0.69463224   0.7160148
   0.72121445   0.74407026   0.77945742   0.78676363   0.80772677
   0.86678293   0.89509286   0.95779127   1.25669771]
nelec by numeric integration = 146.00000038258483
    CPU time for vxc     38.52 sec, wall time     15.88 sec
E1 = -4094.6552975753416  Ecoul = 1892.313632752941  Exc = -124.51856410629011
cycle= 13 E= -835.660433584016  delta_E= -8.59e-11  |g|= 1.13e-05  |ddm|= 4.73e-05
    CPU time for cycle= 13     38.89 sec, wall time     15.94 sec
  HOMO = -0.10334300942392  LUMO = -0.034715110640137
  mo_energy =
[-10.03469299 -10.03139338 -10.02976532 -10.02952858 -10.02551569
 -10.02305661 -10.01951148 -10.01869637 -10.01707466 -10.01571997
 -10.01548016 -10.01401893 -10.01262172 -10.01256215 -10.01199803
 -10.01147366 -10.01042105 -10.00979634 -10.0076947  -10.00564846
 -10.00466107 -10.00441906  -0.88405708  -0.82797366  -0.810799
  -0.7881358   -0.76268918  -0.75260513  -0.73206917  -0.72300967
  -0.6901979   -0.68306915  -0.6439063   -0.62861257  -0.59184342
  -0.57382329  -0.5624481   -0.55646886  -0.53487642  -0.50835795
  -0.4815543   -0.47347539  -0.46096764  -0.45703575  -0.44076466
  -0.4277488   -0.40512601  -0.40086553  -0.39309787  -0.38927321
  -0.386398    -0.37608408  -0.36926281  -0.3611741   -0.34554638
  -0.34368617  -0.33396835  -0.32839476  -0.32095309  -0.30933123
  -0.30523032  -0.29219565  -0.28197124  -0.25883085  -0.25364196
  -0.2472739   -0.22890934  -0.2191226   -0.21189611  -0.20211479
  -0.17618214  -0.15627023  -0.10334301  -0.03471511   0.02662327
   0.05539089   0.09248326   0.10642486   0.13460191   0.15444921
   0.19498885   0.20001889   0.22337035   0.22805461   0.23684937
   0.27245939   0.27498835   0.2985722    0.30847058   0.31285372
   0.33528043   0.34953675   0.35570225   0.36542586   0.37272703
   0.38547674   0.38784063   0.41175562   0.41683605   0.44123394
   0.45771455   0.47386109   0.47963596   0.49078288   0.5115202
   0.5499962    0.57103032   0.58428954   0.59437203   0.61521533
   0.63064206   0.65744241   0.66743774   0.69463204   0.7160134
   0.7212141    0.74406946   0.77945623   0.78676287   0.80772672
   0.86678161   0.89509237   0.95778983   1.25669615]
nelec by numeric integration = 146.00000038258509
    CPU time for vxc     38.25 sec, wall time     15.75 sec
E1 = -4094.6553609115003  Ecoul = 1892.313698060515  Exc = -124.5185660777555
cycle= 14 E= -835.660433584066  delta_E= -5e-11  |g|= 3.19e-06  |ddm|= 2.07e-05
    CPU time for cycle= 14     38.76 sec, wall time     15.83 sec
  HOMO = -0.103343162594382  LUMO = -0.0347152158231276
  mo_energy =
[-10.03469367 -10.03139376 -10.02976505 -10.02952917 -10.02551695
 -10.02305693 -10.0195107  -10.01869553 -10.01707399 -10.01572096
 -10.01548236 -10.01401884 -10.0126229  -10.01256143 -10.01199831
 -10.01147387 -10.01042173 -10.00979563 -10.00769484 -10.00564881
 -10.00465992 -10.00441844  -0.88405674  -0.82797405  -0.81079908
  -0.788136    -0.76268915  -0.75260528  -0.7320692   -0.72300994
  -0.69019799  -0.68306928  -0.6439066   -0.62861255  -0.59184362
  -0.57382342  -0.56244814  -0.5564691   -0.53487638  -0.50835811
  -0.48155437  -0.47347545  -0.46096773  -0.45703594  -0.44076486
  -0.42774889  -0.40512617  -0.40086559  -0.39309797  -0.38927314
  -0.38639793  -0.37608422  -0.36926279  -0.36117431  -0.3455467
  -0.3436861   -0.33396859  -0.32839465  -0.32095335  -0.30933128
  -0.30523034  -0.2921957   -0.28197147  -0.25883098  -0.25364213
  -0.24727403  -0.22890952  -0.21912283  -0.21189638  -0.20211459
  -0.17618239  -0.15627043  -0.10334316  -0.03471522   0.02662298
   0.05539062   0.09248298   0.10642483   0.13460175   0.1544491
   0.19498863   0.20001913   0.22337022   0.22805462   0.23684913
   0.27245943   0.27498806   0.29857207   0.30847051   0.31285367
   0.33528029   0.34953683   0.35570208   0.36542603   0.37272697
   0.38547618   0.38784017   0.41175555   0.41683619   0.44123361
   0.45771429   0.47386082   0.47963606   0.49078294   0.5115198
   0.54999548   0.57103019   0.58428907   0.59437204   0.61521509
   0.63064206   0.65744235   0.66743805   0.69463185   0.71601348
   0.72121396   0.74406927   0.77945606   0.78676291   0.8077264
   0.8667819    0.89509183   0.95779009   1.25669673]
nelec by numeric integration = 146.0000003825849
    CPU time for vxc     38.26 sec, wall time     15.88 sec
E1 = -4094.65538323229  Ecoul = 1892.3137203149204  Exc = -124.51856601135721
Extra cycle  E= -835.660433584052  delta_E= 1.36e-11  |g|= 6.9e-06  |ddm|= 1.67e-05
    CPU time for scf_cycle    625.90 sec, wall time    255.34 sec
    CPU time for SCF    625.90 sec, wall time    255.34 sec
converged SCF energy = -835.660433584052
nelec by numeric integration = 146.0000003825849
    CPU time for vxc     39.53 sec, wall time     17.18 sec
 ** Mulliken pop  **
pop of  0 C 1s            1.99068
pop of  0 C 2s            1.14376
pop of  0 C 2px           0.98863
pop of  0 C 2py           0.95827
pop of  0 C 2pz           0.92701
pop of  1 C 1s            1.99070
pop of  1 C 2s            1.14814
pop of  1 C 2px           0.97933
pop of  1 C 2py           0.94868
pop of  1 C 2pz           0.92164
pop of  2 C 1s            1.99108
pop of  2 C 2s            1.20656
pop of  2 C 2px           0.98256
pop of  2 C 2py           0.93207
pop of  2 C 2pz           0.94284
pop of  3 C 1s            1.99126
pop of  3 C 2s            1.20943
pop of  3 C 2px           0.96902
pop of  3 C 2py           0.92496
pop of  3 C 2pz           0.95696
pop of  4 C 1s            1.99137
pop of  4 C 2s            1.17069
pop of  4 C 2px           0.98323
pop of  4 C 2py           0.94946
pop of  4 C 2pz           1.01492
pop of  5 C 1s            1.99060
pop of  5 C 2s            1.13089
pop of  5 C 2px           1.02798
pop of  5 C 2py           0.94333
pop of  5 C 2pz           0.99470
pop of  6 C 1s            1.99118
pop of  6 C 2s            1.17751
pop of  6 C 2px           0.99161
pop of  6 C 2py           0.97020
pop of  6 C 2pz           0.96001
pop of  7 C 1s            1.99135
pop of  7 C 2s            1.18590
pop of  7 C 2px           0.97753
pop of  7 C 2py           0.93813
pop of  7 C 2pz           0.95266
pop of  8 C 1s            1.99129
pop of  8 C 2s            1.19917
pop of  8 C 2px           0.96306
pop of  8 C 2py           0.92353
pop of  8 C 2pz           0.90644
pop of  9 C 1s            1.99084
pop of  9 C 2s            1.09334
pop of  9 C 2px           1.01302
pop of  9 C 2py           0.99107
pop of  9 C 2pz           0.93760
pop of  10 C 1s           1.99085
pop of  10 C 2s           1.13942
pop of  10 C 2px          1.05813
pop of  10 C 2py          0.93106
pop of  10 C 2pz          1.01760
pop of  11 C 1s           1.99133
pop of  11 C 2s           1.15742
pop of  11 C 2px          0.96891
pop of  11 C 2py          0.95858
pop of  11 C 2pz          0.97116
pop of  12 C 1s           1.99099
pop of  12 C 2s           1.17342
pop of  12 C 2px          0.97139
pop of  12 C 2py          0.93685
pop of  12 C 2pz          0.93279
pop of  13 C 1s           1.99141
pop of  13 C 2s           1.22966
pop of  13 C 2px          0.94279
pop of  13 C 2py          0.89646
pop of  13 C 2pz          0.92285
pop of  14 C 1s           1.99105
pop of  14 C 2s           1.16862
pop of  14 C 2px          0.95515
pop of  14 C 2py          0.94798
pop of  14 C 2pz          0.97392
pop of  15 C 1s           1.99099
pop of  15 C 2s           1.18028
pop of  15 C 2px          1.00316
pop of  15 C 2py          0.93167
pop of  15 C 2pz          0.97695
pop of  16 C 1s           1.99024
pop of  16 C 2s           1.03432
pop of  16 C 2px          1.03138
pop of  16 C 2py          0.99186
pop of  16 C 2pz          0.99331
pop of  17 C 1s           1.99088
pop of  17 C 2s           1.10635
pop of  17 C 2px          0.96642
pop of  17 C 2py          0.96410
pop of  17 C 2pz          0.96627
pop of  18 C 1s           1.99074
pop of  18 C 2s           1.08815
pop of  18 C 2px          0.98506
pop of  18 C 2py          0.99163
pop of  18 C 2pz          1.00543
pop of  19 C 1s           1.99245
pop of  19 C 2s           1.10710
pop of  19 C 2px          0.98852
pop of  19 C 2py          0.96850
pop of  19 C 2pz          0.99128
pop of  20 C 1s           1.99071
pop of  20 C 2s           1.13342
pop of  20 C 2px          0.99548
pop of  20 C 2py          0.97162
pop of  20 C 2pz          0.95483
pop of  21 C 1s           1.99168
pop of  21 C 2s           1.00399
pop of  21 C 2px          1.02920
pop of  21 C 2py          1.04909
pop of  21 C 2pz          1.04908
pop of  22 H 1s           0.91070
pop of  23 H 1s           0.94638
pop of  24 H 1s           0.89078
pop of  25 H 1s           0.90407
pop of  26 H 1s           0.90520
pop of  27 H 1s           0.96736
pop of  28 H 1s           0.88992
pop of  29 H 1s           0.96189
pop of  30 H 1s           0.93743
pop of  31 H 1s           0.91547
pop of  32 H 1s           0.92123
pop of  33 H 1s           0.93855
pop of  34 H 1s           0.93311
pop of  35 H 1s           0.92582
 ** Mulliken atomic charges  **
charge of    0C =     -0.00835
charge of    1C =      0.01151
charge of    2C =     -0.05510
charge of    3C =     -0.05164
charge of    4C =     -0.10968
charge of    5C =     -0.08749
charge of    6C =     -0.09051
charge of    7C =     -0.04556
charge of    8C =      0.01651
charge of    9C =     -0.02586
charge of   10C =     -0.13705
charge of   11C =     -0.04740
charge of   12C =     -0.00543
charge of   13C =      0.01683
charge of   14C =     -0.03671
charge of   15C =     -0.08306
charge of   16C =     -0.04111
charge of   17C =      0.00598
charge of   18C =     -0.06101
charge of   19C =     -0.04785
charge of   20C =     -0.04606
charge of   21C =     -0.12304
charge of   22H =      0.08930
charge of   23H =      0.05362
charge of   24H =      0.10922
charge of   25H =      0.09593
charge of   26H =      0.09480
charge of   27H =      0.03264
charge of   28H =      0.11008
charge of   29H =      0.03811
charge of   30H =      0.06257
charge of   31H =      0.08453
charge of   32H =      0.07877
charge of   33H =      0.06145
charge of   34H =      0.06689
charge of   35H =      0.07418
Dipole moment(X, Y, Z, Debye):  0.12263,  0.91902,  0.23378
nelec by numeric integration = 146.0000003825849
    CPU time for vxc     38.71 sec, wall time     16.51 sec
E1 = -4094.65538323229  Ecoul = 1892.3137203149201  Exc = -124.51856601135722
nelec by numeric integration = 146.0000003825849
    CPU time for vxc     39.00 sec, wall time     16.18 sec
E1 = -4094.65538323229  Ecoul = 1892.31372031492  Exc = -124.51856601135722
