System: uname_result(system='Linux', node='cosmopc18', release='5.15.0-97-generic', version='#107-Ubuntu SMP Wed Feb 7 13:26:48 UTC 2024', machine='x86_64')  Threads 4
Python 3.11.8 (main, Feb 26 2024, 21:39:34) [GCC 11.2.0]
numpy 1.26.4  scipy 1.11.4
Date: Tue Apr  9 11:31:12 2024
PySCF version 2.3.0
PySCF path  /home/saade/miniconda3/envs/tutorial/lib/python3.11/site-packages/pyscf

[ENV] PYSCFAD_BACKEND torch
[CONFIG] conf_file None
[INPUT] verbose = 5
[INPUT] max_memory = 4000 
[INPUT] num. atoms = 36
[INPUT] num. electrons = 146
[INPUT] charge = 0
[INPUT] spin (= nelec alpha-beta = 2S) = 0
[INPUT] symmetry False subgroup None
[INPUT] Mole.unit = angstrom
[INPUT] Symbol           X                Y                Z      unit          X                Y                Z       unit  Magmom
[INPUT]  1 C     -0.135771000000   3.648467000000   0.794402000000 AA   -0.256570005658   6.894603404514   1.501202212807 Bohr   0.0
[INPUT]  2 C     -0.063725000000   3.626579000000  -0.681582000000 AA   -0.120422797288   6.853241079099  -1.288003311433 Bohr   0.0
[INPUT]  3 C     -0.021035000000   4.844423000000   1.389425000000 AA   -0.039750389030   9.154632701544   2.625632720624 Bohr   0.0
[INPUT]  4 C      0.072532000000   2.286366000000   1.087028000000 AA    0.137065615267   4.320605560517   2.054185209734 Bohr   0.0
[INPUT]  5 C     -0.054659000000   4.809864000000  -1.370822000000 AA   -0.103290540243   9.089325656405  -2.590478145529 Bohr   0.0
[INPUT]  6 C     -0.108932000000   2.448592000000  -1.305132000000 AA   -0.205851646201   4.627168270801  -2.466342036406 Bohr   0.0
[INPUT]  7 C      0.038374000000   6.206328000000  -0.698886000000 AA    0.072516350304  11.728260159220  -1.320703132293 Bohr   0.0
[INPUT]  8 C      0.059882000000   6.203201000000   0.708082000000 AA    0.113160579791  11.722350985628   1.338081053734 Bohr   0.0
[INPUT]  9 C      0.065968000000   1.389029000000   0.610467000000 AA    0.124661452985   2.624884389078   1.153615438085 Bohr   0.0
[INPUT] 10 C     -0.020876000000   1.300196000000  -0.863243000000 AA   -0.039449922576   2.457014348255  -1.631292848948 Bohr   0.0
[INPUT] 11 C      0.113082000000  -0.134400000000   1.305972000000 AA    0.213694009618  -0.253979191142   2.467929406350 Bohr   0.0
[INPUT] 12 C     -0.154771000000   0.015287000000  -1.333132000000 AA   -0.292474802025   0.028888243266  -2.519254367894 Bohr   0.0
[INPUT] 13 C     -0.147602000000  -1.162056000000   0.802834000000 AA   -0.278927355438  -2.195967581408   1.517136383489 Bohr   0.0
[INPUT] 14 C     -0.095689000000  -1.199946000000  -0.585019000000 AA   -0.180826003134  -2.267569304267  -1.105525687667 Bohr   0.0
[INPUT] 15 C      0.031479000000  -2.277923000000   1.298724000000 AA    0.059486688675  -4.304650602848   2.454232671400 Bohr   0.0
[INPUT] 16 C      0.017502000000  -2.580270000000  -1.368321000000 AA    0.033073986632  -4.876003627431  -2.585751940491 Bohr   0.0
[INPUT] 17 C      0.032485000000  -3.657326000000   0.942243000000 AA    0.061387753156  -6.911344488251   1.780581212789 Bohr   0.0
[INPUT] 18 C      0.019669000000  -3.805692000000  -0.704021000000 AA    0.037169023144  -7.191715594448  -1.330406875942 Bohr   0.0
[INPUT] 19 C     -0.087378000000  -4.929429000000   1.343496000000 AA   -0.165120489312  -9.315270760489   2.538839489449 Bohr   0.0
[INPUT] 20 C      0.015621000000  -4.925994000000  -1.303797000000 AA    0.029519411792  -9.308779551251  -2.463819252030 Bohr   0.0
[INPUT] 21 C     -0.041286000000  -6.039581000000   0.601665000000 AA   -0.078019232779 -11.413153997127   1.136982068736 Bohr   0.0
[INPUT] 22 C      0.258816000000  -6.061190000000  -0.845686000000 AA    0.489091356655 -11.453989088953  -1.598114927379 Bohr   0.0
[INPUT] 23 H      0.005740000000   5.091548000000   2.412371000000 AA    0.010847027955   9.621631270077   4.558720500843 Bohr   0.0
[INPUT] 24 H     -0.074169000000   2.381396000000   2.418055000000 AA   -0.140159096933   4.500186234135   4.569461704135 Bohr   0.0
[INPUT] 25 H     -0.019148000000   4.945937000000  -2.514038000000 AA   -0.036184475833   9.346466359353  -4.750843286749 Bohr   0.0
[INPUT] 26 H      0.094658000000   2.669302000000  -2.353088000000 AA    0.178877695499   5.044249723754  -4.446691867001 Bohr   0.0
[INPUT] 27 H     -0.036539000000   7.172161000000  -1.276852000000 AA   -0.069048702865  13.553420011287  -2.412900581603 Bohr   0.0
[INPUT] 28 H      0.158967000000   7.099460000000   1.290993000000 AA    0.300404092844  13.416035032305   2.439623198731 Bohr   0.0
[INPUT] 29 H      0.088702000000  -0.140619000000   2.420206000000 AA    0.167622486701  -0.265731397910   4.573526505029 Bohr   0.0
[INPUT] 30 H      0.084852000000  -0.048403000000  -2.362650000000 AA    0.160347041122  -0.091468413607  -4.464761428204 Bohr   0.0
[INPUT] 31 H     -0.007207000000  -2.404267000000   2.491495000000 AA   -0.013619256180  -4.543406160330   4.708243190723 Bohr   0.0
[INPUT] 32 H     -0.019314000000  -2.451031000000  -2.575091000000 AA   -0.036498170370  -4.631777312819  -4.866216735832 Bohr   0.0
[INPUT] 33 H     -0.092858000000  -4.804112000000   2.449881000000 AA   -0.175476188475  -9.078455951737   4.629604127776 Bohr   0.0
[INPUT] 34 H     -0.042764000000  -5.012285000000  -2.415118000000 AA   -0.080812247991  -9.471845908266  -4.563911578507 Bohr   0.0
[INPUT] 35 H     -0.050381000000  -7.057384000000   1.335749000000 AA   -0.095206291882 -13.336522915887   2.524199781162 Bohr   0.0
[INPUT] 36 H     -0.148030000000  -7.065811000000  -1.113118000000 AA   -0.279736158219 -13.352447637939  -2.103488164324 Bohr   0.0
[INPUT] ---------------- BASIS SET ---------------- 
[INPUT] l, kappa, [nprim/nctr], expnt,             c_1 c_2 ...
[INPUT] H
[INPUT] 0    0    [3    /1   ]  3.42525091        0.15432897
                                0.62391373        0.53532814
                                0.1688554         0.44463454
[INPUT] C
[INPUT] 0    0    [3    /1   ]  71.616837         0.15432897
                                13.045096         0.53532814
                                3.5305122         0.44463454
[INPUT] 0    0    [3    /1   ]  2.9412494         -0.09996723
                                0.6834831         0.39951283
                                0.2222899         0.70011547
[INPUT] 1    0    [3    /1   ]  2.9412494         0.15591627
                                0.6834831         0.60768372
                                0.2222899         0.39195739

nuclear repulsion = 1514.32928385365
number of shells = 80
number of NR pGTOs = 372
number of NR cGTOs = 124
basis = sto3g
ecp = {}
CPU time:     16018.67
atom C rad-grids = 99, ang-grids = [ 50  50  50  50  50  50  50  50  50  50  50  50  50  50  50  50  50  50
  50  50  50  50  50  50  50  50  50  50  50  50  50  86  86  86  86  86
  86  86  86  86  86  86  86 434 434 434 434 434 434 434 434 434 590 590
 590 590 590 590 590 590 590 590 590 590 590 590 590 590 590 590 590 590
 590 590 590 590 590 590 590 434 434 434 434 434 434 434 434 434 434 434
 434 434 434 434 434 434 434 434 434]
atom H rad-grids = 99, ang-grids = [ 50  50  50  50  50  50  50  50  50  50  50  50  50  50  50  50  50  50
  50  50  50  50  50  50  50  50  50  50  86  86  86  86  86  86  86 434
 434 434 434 434 434 434 434 590 590 590 590 590 590 590 590 590 590 590
 590 590 590 590 590 590 590 590 590 590 590 590 590 590 590 434 434 434
 434 434 434 434 434 434 434 434 434 434 434 434 434 434 434 434 434 434
 434 434 434 434 434 434 434 434 434]
tot_boxes 5270, boxes in each direction [ 8 29 15]
Padding 0 grids
tot grids = 1157832


******** <class 'pyscf.dft.rks.RKS'> ********
method = RKS
initial guess = minao
damping factor = 0
level_shift factor = 0
DIIS = <class 'pyscf.scf.diis.CDIIS'>
diis_start_cycle = 1
diis_space = 8
SCF conv_tol = 1e-10
SCF conv_tol_grad = None
SCF max_cycles = 50
direct_scf = True
direct_scf_tol = 1e-13
chkfile to save SCF result = /home/saade/mlelec/tutorials/tmpmrb47eyb
max_memory 4000 MB (current use 637 MB)
XC library pyscf.dft.libxc version 6.1.0
    S. Lehtola, C. Steigemann, M. J.T. Oliveira, and M. A.L. Marques.,  SoftwareX 7, 1–5 (2018)
XC functionals = b3lypg
    P. J. Stephens, F. J. Devlin, C. F. Chabalowski, and M. J. Frisch.,  J. Phys. Chem. 98, 11623 (1994)
radial grids: 
    Treutler-Ahlrichs [JCP 102, 346 (1995); DOI:10.1063/1.469408] (M4) radial grids
    
becke partition: Becke, JCP 88, 2547 (1988); DOI:10.1063/1.454033
pruning grids: <function nwchem_prune at 0x7f9db5616ca0>
grids dens level: 3
symmetrized grids: False
atomic radii adjust function: <function treutler_atomic_radii_adjust at 0x7f9db5617380>
User specified grid scheme (99, 590)
small_rho_cutoff = 1e-07
Set gradient conv threshold to 1e-05
Initial guess from minao.
nelec by numeric integration = 145.27564343673808
    CPU time for vxc     37.27 sec, wall time     15.60 sec
E1 = -4128.019095285839  Ecoul = 1897.8132155610394  Exc = -126.35573702525748
init E= -842.232332896407
cond(S) = 45.40420658509598
    CPU time for initialize scf     46.91 sec, wall time     17.93 sec
  HOMO = -0.209354179914812  LUMO = -0.162172063291915
  mo_energy =
[-1.02047430e+01 -1.01912453e+01 -1.01842786e+01 -1.01366352e+01
 -1.01335954e+01 -1.01320880e+01 -1.01262672e+01 -1.01194501e+01
 -1.01105817e+01 -1.01069608e+01 -1.01062043e+01 -1.01053670e+01
 -1.01039608e+01 -1.01011540e+01 -1.00955995e+01 -1.00916005e+01
 -1.00908850e+01 -1.00786147e+01 -1.00784892e+01 -1.00782407e+01
 -1.00743467e+01 -1.00686196e+01 -1.15694138e+00 -1.10943466e+00
 -1.06612511e+00 -1.00156859e+00 -9.86457385e-01 -9.39554952e-01
 -9.18235852e-01 -9.10927698e-01 -8.65271115e-01 -8.49928645e-01
 -8.18121476e-01 -7.79740781e-01 -7.24198999e-01 -7.17489146e-01
 -6.94425745e-01 -6.82915062e-01 -6.65093912e-01 -6.49605744e-01
 -5.98765350e-01 -5.91907653e-01 -5.89553923e-01 -5.59611961e-01
 -5.52721262e-01 -5.33249515e-01 -5.27831847e-01 -5.16316115e-01
 -4.93404128e-01 -4.85520216e-01 -4.81585680e-01 -4.76345349e-01
 -4.68122385e-01 -4.58361051e-01 -4.46560670e-01 -4.39627114e-01
 -4.28597544e-01 -4.13547494e-01 -4.01334851e-01 -3.98555795e-01
 -3.89999509e-01 -3.84440216e-01 -3.76877352e-01 -3.67179799e-01
 -3.57447927e-01 -3.44631179e-01 -3.13991029e-01 -3.02472671e-01
 -2.89095183e-01 -2.82876971e-01 -2.75710709e-01 -2.52614075e-01
 -2.09354180e-01 -1.62172063e-01 -9.34299506e-02 -7.03787408e-02
 -5.29107792e-02 -3.36402500e-02  7.24910919e-03  3.12888005e-02
  5.45331776e-02  6.19469875e-02  9.41688593e-02  1.16929283e-01
  1.32983991e-01  1.56097657e-01  1.71386995e-01  1.82366941e-01
  1.96367931e-01  2.00086594e-01  2.08243792e-01  2.25991194e-01
  2.36257306e-01  2.38722842e-01  2.54432775e-01  2.67422039e-01
  2.87170842e-01  2.90147570e-01  3.06635581e-01  3.20177013e-01
  3.34412748e-01  3.57481916e-01  3.64418497e-01  3.73325002e-01
  3.95327333e-01  4.08119087e-01  4.28121256e-01  4.48405722e-01
  4.70822043e-01  4.73531850e-01  4.97940782e-01  5.40511207e-01
  5.58818577e-01  5.71183901e-01  5.77353191e-01  6.19611444e-01
  6.41088573e-01  7.22669299e-01  7.34689329e-01  7.60254304e-01
  7.80555028e-01  7.97553188e-01  8.46081704e-01  1.20571576e+00]
nelec by numeric integration = 146.00000063138722
    CPU time for vxc     38.48 sec, wall time     15.86 sec
E1 = -4144.011387600224  Ecoul = 1919.196338916036  Exc = -124.97401618611484
cycle= 1 E= -835.459781016653  delta_E= 6.77  |g|= 0.359  |ddm|= 9.42
    CPU time for cycle= 1     38.78 sec, wall time     15.91 sec
  HOMO = -0.0714754317427942  LUMO = 0.00665847860528067
  mo_energy =
[-1.00588908e+01 -1.00469134e+01 -1.00408037e+01 -1.00363190e+01
 -1.00253322e+01 -1.00225783e+01 -1.00205409e+01 -1.00008196e+01
 -9.99263793e+00 -9.98779120e+00 -9.98404255e+00 -9.98042800e+00
 -9.96552522e+00 -9.96203394e+00 -9.96144798e+00 -9.95831352e+00
 -9.93939591e+00 -9.93836260e+00 -9.92144389e+00 -9.90343027e+00
 -9.88596924e+00 -9.88523891e+00 -8.33953818e-01 -8.26566016e-01
 -7.98168528e-01 -7.73315837e-01 -7.36895665e-01 -7.21506267e-01
 -7.18444680e-01 -7.08544408e-01 -6.83807646e-01 -6.60508193e-01
 -6.23030531e-01 -6.11864435e-01 -5.75116688e-01 -5.66844215e-01
 -5.35001063e-01 -5.32840283e-01 -5.18138597e-01 -5.05790979e-01
 -4.73682730e-01 -4.66123006e-01 -4.55816967e-01 -4.37768293e-01
 -4.27972407e-01 -4.18353316e-01 -4.01577111e-01 -3.85390643e-01
 -3.81874352e-01 -3.73432335e-01 -3.55618771e-01 -3.50683462e-01
 -3.44619340e-01 -3.36826097e-01 -3.27900317e-01 -3.22291736e-01
 -3.18026618e-01 -3.08791985e-01 -2.98588069e-01 -2.87921663e-01
 -2.81760452e-01 -2.71099800e-01 -2.58693323e-01 -2.46810525e-01
 -2.40534705e-01 -2.32866259e-01 -2.00996286e-01 -1.95235104e-01
 -1.84447173e-01 -1.70889733e-01 -1.47636703e-01 -1.33094813e-01
 -7.14754317e-02  6.65847861e-03  5.40763968e-02  7.00878916e-02
  9.38757734e-02  1.20797045e-01  1.82367397e-01  2.14428241e-01
  2.22878431e-01  2.54941199e-01  2.59817976e-01  2.64097765e-01
  2.70907233e-01  3.00147453e-01  3.10639609e-01  3.36190755e-01
  3.43287885e-01  3.50168205e-01  3.52220336e-01  3.74854459e-01
  3.83928999e-01  3.91717574e-01  4.08271475e-01  4.25502970e-01
  4.34367438e-01  4.60634197e-01  4.62801985e-01  4.77593654e-01
  5.01297623e-01  5.16079731e-01  5.22566220e-01  5.31803982e-01
  5.40494612e-01  5.54529224e-01  5.73451088e-01  5.87698155e-01
  6.25270176e-01  6.42145745e-01  6.50711963e-01  6.93145200e-01
  7.17372088e-01  7.47736140e-01  7.57326651e-01  7.90558977e-01
  8.17474073e-01  8.93292528e-01  9.21246064e-01  9.23998840e-01
  9.98208151e-01  1.03161583e+00  1.09969029e+00  1.48686328e+00]
nelec by numeric integration = 146.0000004711232
    CPU time for vxc     38.18 sec, wall time     15.73 sec
E1 = -4134.685835329308  Ecoul = 1909.8043451829444  Exc = -124.80107461603532
cycle= 2 E= -835.353280908749  delta_E= 0.107  |g|= 0.629  |ddm|= 1.74
    CPU time for cycle= 2     38.70 sec, wall time     15.81 sec
  HOMO = -0.102982781178416  LUMO = -0.0229756439020065
  mo_energy =
[-10.04466931 -10.04249723 -10.03238839 -10.0320251  -10.02988432
 -10.02724013 -10.01829633 -10.01289537 -10.00877287 -10.00790454
 -10.0017514   -9.99859734  -9.99849939  -9.99651608  -9.99434643
  -9.99318832  -9.99196821  -9.98770403  -9.98309886  -9.98285946
  -9.98137045  -9.97909891  -0.88548742  -0.86547412  -0.82840367
  -0.78477918  -0.76277096  -0.74426942  -0.72779628  -0.72200715
  -0.69370661  -0.67931595  -0.66090483  -0.62473397  -0.58565057
  -0.5807697   -0.56006513  -0.55012034  -0.53378029  -0.5203026
  -0.48359907  -0.48164114  -0.4751466   -0.45154283  -0.44835611
  -0.42636258  -0.41972595  -0.40374599  -0.39751086  -0.39371579
  -0.37867461  -0.3732465   -0.36893138  -0.35819099  -0.34362974
  -0.33307679  -0.32691772  -0.31991769  -0.3144047   -0.303722
  -0.29753196  -0.28937191  -0.28480326  -0.27700137  -0.27101883
  -0.24456968  -0.21183995  -0.20338118  -0.20055379  -0.18839313
  -0.18168235  -0.15069685  -0.10298278  -0.02297564   0.0449665
   0.06757454   0.08507024   0.10717538   0.15919204   0.17825348
   0.20218849   0.22451616   0.24005899   0.25281034   0.27699201
   0.29606837   0.3100192    0.32048384   0.331393     0.34218686
   0.36116664   0.36465123   0.37325786   0.37455184   0.38677333
   0.40139522   0.41429715   0.42841992   0.44682817   0.44956701
   0.4724966    0.49962274   0.50954313   0.51896874   0.53203118
   0.54477044   0.56426969   0.58803798   0.61872435   0.62759553
   0.64085385   0.68525514   0.70947365   0.7210035    0.72545069
   0.77216503   0.79310472   0.87776419   0.88918704   0.916661
   0.93424704   0.95917096   0.99767478   1.39841363]
nelec by numeric integration = 146.0000005323065
    CPU time for vxc     38.31 sec, wall time     15.85 sec
E1 = -4139.306421350833  Ecoul = 1914.3198427994225  Exc = -124.83902424932863
cycle= 3 E= -835.496318947088  delta_E= -0.143  |g|= 0.22  |ddm|= 1.46
    CPU time for cycle= 3     38.61 sec, wall time     15.90 sec
  HOMO = -0.104787303978332  LUMO = -0.0290436764701555
  mo_energy =
[-10.05092884 -10.03695437 -10.03486643 -10.03390661 -10.03077893
 -10.02794962 -10.02739788 -10.02016225 -10.01881708 -10.01712345
 -10.01600979 -10.01563317 -10.01380465 -10.01212414 -10.01059443
 -10.01041327 -10.00689497 -10.00547924 -10.00444976 -10.00337015
 -10.00147562 -10.00105903  -0.89455696  -0.86171781  -0.8417634
  -0.79404579  -0.77900972  -0.75117083  -0.73523445  -0.73298825
  -0.69993342  -0.68612786  -0.65820398  -0.63497968  -0.59247807
  -0.58720182  -0.56318528  -0.55760377  -0.54312639  -0.52945558
  -0.49030273  -0.48533119  -0.48234747  -0.4573213   -0.45337414
  -0.43431757  -0.41738985  -0.4096767   -0.40357435  -0.3995017
  -0.38809973  -0.38080105  -0.3724978   -0.36299297  -0.35119921
  -0.34268118  -0.33378339  -0.32736251  -0.31829237  -0.31018073
  -0.30447813  -0.2973934   -0.29015066  -0.28847366  -0.27524325
  -0.25414185  -0.21969225  -0.21180623  -0.20740992  -0.19357404
  -0.1886714   -0.15894359  -0.1047873   -0.02904368   0.0365011
   0.06048133   0.07911711   0.09871412   0.15996966   0.16694354
   0.19418152   0.21056566   0.23574486   0.24858462   0.27068897
   0.28815481   0.30751799   0.31596386   0.32462923   0.34068812
   0.35348211   0.36317681   0.36586468   0.36934491   0.37793112
   0.3991199    0.41509884   0.42807962   0.4418416    0.44981345
   0.46992944   0.49366768   0.49783769   0.5096196    0.52644256
   0.53642211   0.55780313   0.57814406   0.60937059   0.61177804
   0.63141698   0.67227428   0.69892832   0.71052048   0.71980521
   0.75836125   0.78236917   0.86737363   0.87483393   0.900293
   0.93175119   0.95480052   1.01397833   1.38115027]
nelec by numeric integration = 146.00000056158862
    CPU time for vxc     37.61 sec, wall time     15.66 sec
E1 = -4139.712259447777  Ecoul = 1914.728474517486  Exc = -124.85785803612362
cycle= 4 E= -835.512359112764  delta_E= -0.016  |g|= 0.0929  |ddm|= 0.548
    CPU time for cycle= 4     38.12 sec, wall time     15.74 sec
  HOMO = -0.108332078996785  LUMO = -0.0305362933662835
  mo_energy =
[-10.04558063 -10.04470784 -10.0330128  -10.03170741 -10.02739456
 -10.02554266 -10.02361042 -10.02169426 -10.02062191 -10.01699656
 -10.01679863 -10.01654426 -10.01604423 -10.01557324 -10.01548194
 -10.01313912 -10.01292424 -10.01284567 -10.01081256 -10.00868892
 -10.00654219 -10.00266424  -0.88946109  -0.86715139  -0.84447285
  -0.79294433  -0.77254746  -0.7537265   -0.73880186  -0.73239735
  -0.70136168  -0.68601588  -0.66375528  -0.63518006  -0.59314843
  -0.58786689  -0.56486743  -0.55841272  -0.54122989  -0.52982131
  -0.4904023   -0.48649561  -0.48181408  -0.45902189  -0.45276941
  -0.43498461  -0.42037457  -0.40945177  -0.40352719  -0.3999508
  -0.38828967  -0.38056093  -0.37304701  -0.36365271  -0.35056398
  -0.345419    -0.33250523  -0.32843894  -0.3212857   -0.31325785
  -0.30652623  -0.29693301  -0.29149586  -0.28509271  -0.27724224
  -0.2571034   -0.2219054   -0.2140575   -0.20980939  -0.19292934
  -0.1897599   -0.16007132  -0.10833208  -0.03053629   0.03530833
   0.05822273   0.07576343   0.09823681   0.15893874   0.16460044
   0.19358488   0.2148388    0.23281264   0.24574409   0.26956293
   0.28921783   0.3036679    0.31456802   0.32274134   0.33759884
   0.35515976   0.36225213   0.36374591   0.36771454   0.37625921
   0.39873595   0.41296816   0.4245201    0.44203316   0.44780657
   0.46993262   0.49228307   0.50185404   0.51162776   0.52495565
   0.53722138   0.55547038   0.57560861   0.60785816   0.61543424
   0.6305494    0.67573611   0.69636904   0.71116343   0.71774461
   0.76105805   0.78027974   0.8638639    0.8802344    0.89863547
   0.93464628   0.95302006   1.00481399   1.3856672 ]
nelec by numeric integration = 146.00000056016916
    CPU time for vxc     38.33 sec, wall time     15.83 sec
E1 = -4139.72393756184  Ecoul = 1914.7399879071436  Exc = -124.86059154667981
cycle= 5 E= -835.515257347726  delta_E= -0.0029  |g|= 0.0313  |ddm|= 0.19
    CPU time for cycle= 5     38.70 sec, wall time     15.89 sec
  HOMO = -0.107732737740272  LUMO = -0.0290596164277743
  mo_energy =
[-10.04297141 -10.04186147 -10.03016127 -10.02879679 -10.02840811
 -10.02614735 -10.02239643 -10.02164484 -10.02017831 -10.01649701
 -10.0146097  -10.01455569 -10.01438491 -10.01365373 -10.01306421
 -10.01149165 -10.01072089 -10.00971693 -10.00956458 -10.00814018
 -10.00736674 -10.0052291   -0.88996546  -0.86557107  -0.8411371
  -0.79348858  -0.77403399  -0.75163854  -0.73578098  -0.7322471
  -0.70118743  -0.6860881   -0.66150776  -0.63431583  -0.59259592
  -0.58735463  -0.56385799  -0.55738869  -0.54152218  -0.52859303
  -0.489719    -0.48603333  -0.48184974  -0.4572349   -0.45311796
  -0.43376049  -0.41940278  -0.40940888  -0.40358201  -0.39926354
  -0.38710966  -0.38054991  -0.37260317  -0.36383232  -0.34997969
  -0.34306022  -0.33249781  -0.32765409  -0.319544    -0.31168628
  -0.30585253  -0.29703186  -0.29149474  -0.28573115  -0.27676748
  -0.25479346  -0.22055619  -0.21272437  -0.20804695  -0.19353221
  -0.19002019  -0.15979668  -0.10773274  -0.02905962   0.03624524
   0.05922167   0.07730773   0.09828123   0.15890797   0.16685021
   0.19397881   0.21390476   0.23460191   0.24796154   0.27105937
   0.28945722   0.30545677   0.31510563   0.32467544   0.33837507
   0.35508115   0.3625936    0.36529364   0.36814312   0.37827914
   0.39860217   0.41388423   0.42597022   0.44202695   0.44880136
   0.46953039   0.49381114   0.50069443   0.51090774   0.52566099
   0.53714592   0.55563211   0.57781765   0.61037984   0.61439209
   0.63118495   0.67419065   0.69857514   0.71140863   0.71870599
   0.76046027   0.78251332   0.8673367    0.87832266   0.90233104
   0.93426521   0.95232504   1.00680815   1.38666537]
nelec by numeric integration = 146.0000005487324
    CPU time for vxc     38.27 sec, wall time     15.79 sec
E1 = -4139.654620406918  Ecoul = 1914.6670930382027  Exc = -124.85735398946518
cycle= 6 E= -835.51559750453  delta_E= -0.00034  |g|= 0.0096  |ddm|= 0.0607
    CPU time for cycle= 6     38.89 sec, wall time     15.88 sec
  HOMO = -0.107629042019572  LUMO = -0.0288368370684005
  mo_energy =
[-10.04375819 -10.04146099 -10.02971347 -10.02893217 -10.02886505
 -10.02589409 -10.02390563 -10.02098497 -10.01958759 -10.01760492
 -10.01447343 -10.01386337 -10.0126757  -10.01216321 -10.01154944
 -10.01147644 -10.01015011 -10.00949719 -10.00906179 -10.00834206
 -10.00618215 -10.00502808  -0.8898143   -0.86543172  -0.84169985
  -0.79279751  -0.77369717  -0.75166922  -0.73614701  -0.73188195
  -0.70056784  -0.68556797  -0.66158731  -0.63411517  -0.59226968
  -0.58705563  -0.56369694  -0.557413    -0.54118639  -0.52879642
  -0.48960193  -0.48571227  -0.48154536  -0.45740615  -0.45264902
  -0.43385344  -0.41941847  -0.40894899  -0.40324128  -0.39919738
  -0.38715349  -0.38023937  -0.37238086  -0.3634867   -0.35004497
  -0.34336736  -0.33221386  -0.32773473  -0.31967695  -0.31156431
  -0.30544867  -0.29653335  -0.29092925  -0.28543995  -0.27661034
  -0.25499592  -0.22041762  -0.21261347  -0.20831716  -0.19328958
  -0.18944639  -0.15947687  -0.10762904  -0.02883684   0.03655345
   0.05957996   0.07749041   0.09883603   0.15898191   0.16672906
   0.19432806   0.21427034   0.23447511   0.24762363   0.27087701
   0.28961313   0.30541645   0.31542413   0.32433488   0.33888388
   0.35529076   0.36281486   0.36538637   0.36875263   0.37793838
   0.39912249   0.41398293   0.42607125   0.44239486   0.44883618
   0.46987635   0.49361183   0.50111488   0.51138922   0.52598595
   0.53751412   0.55646006   0.57778461   0.60999533   0.61485852
   0.63152293   0.67504694   0.69874367   0.71176722   0.71895713
   0.76090695   0.78224434   0.86678224   0.87895556   0.90154525
   0.9347866    0.95284833   1.00702577   1.38626307]
nelec by numeric integration = 146.00000055315965
    CPU time for vxc     38.01 sec, wall time     15.78 sec
E1 = -4139.661325581747  Ecoul = 1914.6733418960848  Exc = -124.85693015806586
cycle= 7 E= -835.515629990078  delta_E= -3.25e-05  |g|= 0.00249  |ddm|= 0.0176
    CPU time for cycle= 7     38.48 sec, wall time     15.85 sec
  HOMO = -0.107586930446436  LUMO = -0.028717574854173
  mo_energy =
[-10.04373407 -10.04157182 -10.02972317 -10.02848752 -10.02837525
 -10.02539142 -10.02354984 -10.02061157 -10.01952574 -10.01727149
 -10.01418151 -10.01371136 -10.01284965 -10.01233535 -10.01163831
 -10.01141703 -10.00986834 -10.00973595 -10.00926163 -10.00835237
 -10.00605747 -10.00524266  -0.88967668  -0.86537151  -0.84161041
  -0.79271048  -0.77354477  -0.75165242  -0.73600933  -0.73180608
  -0.70048903  -0.68550099  -0.66153143  -0.63403617  -0.59222155
  -0.58698747  -0.56360438  -0.55734918  -0.54109966  -0.52871521
  -0.48951114  -0.48568784  -0.48146441  -0.457361    -0.45262632
  -0.43375907  -0.41931334  -0.40891247  -0.40318214  -0.39910927
  -0.38709769  -0.38016926  -0.37229032  -0.36340006  -0.34993772
  -0.34329176  -0.33214033  -0.32764338  -0.31962546  -0.31153429
  -0.30543487  -0.29649877  -0.29090415  -0.28530244  -0.27654008
  -0.25494386  -0.22032397  -0.21255394  -0.20825005  -0.19310359
  -0.18934248  -0.15940753  -0.10758693  -0.02871757   0.03663807
   0.05965122   0.07755872   0.09892465   0.15919146   0.16680694
   0.19441696   0.21437534   0.23455882   0.24770415   0.270924
   0.28969647   0.305467     0.31552858   0.32448273   0.33889366
   0.35538251   0.36285974   0.36539037   0.36864435   0.37807275
   0.39908968   0.41402443   0.4260542    0.44243149   0.44883953
   0.47001423   0.49368977   0.5012386    0.51150407   0.5260622
   0.53760857   0.55650499   0.57776777   0.61016235   0.61501503
   0.63162962   0.67509848   0.6987517    0.71186079   0.71906611
   0.76105463   0.78234692   0.8668701    0.87916576   0.9016672
   0.93483715   0.95289455   1.0071097    1.38633685]
nelec by numeric integration = 146.00000055254688
    CPU time for vxc     38.03 sec, wall time     15.81 sec
E1 = -4139.649939336812  Ecoul = 1914.661925171123  Exc = -124.8569017031848
cycle= 8 E= -835.515632015223  delta_E= -2.03e-06  |g|= 0.000915  |ddm|= 0.00452
    CPU time for cycle= 8     38.37 sec, wall time     15.87 sec
  HOMO = -0.107646247289907  LUMO = -0.0287557045975893
  mo_energy =
[-10.04376289 -10.04168499 -10.02978187 -10.02861314 -10.02860769
 -10.02543709 -10.02356681 -10.02063931 -10.01953158 -10.01743286
 -10.01440837 -10.01382677 -10.01276755 -10.01227117 -10.01156994
 -10.01143266 -10.00991401 -10.00963046 -10.00920829 -10.00835911
 -10.00618975 -10.00522371  -0.88974121  -0.86545098  -0.84161343
  -0.79274058  -0.77358812  -0.75165907  -0.73604535  -0.73183479
  -0.70052482  -0.68552626  -0.66158716  -0.63406027  -0.59224928
  -0.5870237   -0.56365496  -0.55737569  -0.54111825  -0.52872479
  -0.4895439   -0.48571483  -0.48149369  -0.45738084  -0.4526496
  -0.43378176  -0.41936855  -0.40894128  -0.40321209  -0.39915018
  -0.38710171  -0.38018678  -0.37233969  -0.36344611  -0.34995888
  -0.34330664  -0.33216916  -0.32766491  -0.3196507   -0.31154798
  -0.30544901  -0.29651122  -0.29091927  -0.28534835  -0.27657392
  -0.25495534  -0.22036121  -0.21256397  -0.20824924  -0.19314578
  -0.18937915  -0.15943656  -0.10764625  -0.0287557    0.03661448
   0.05962336   0.07753265   0.09888886   0.15913904   0.16679047
   0.1943866    0.21434275   0.2345321    0.24770168   0.27091352
   0.28967266   0.30543278   0.31548723   0.3244319    0.33886887
   0.3553497    0.36283044   0.3653924    0.36867268   0.37803608
   0.39909182   0.41399904   0.42604144   0.44241117   0.44882269
   0.46995252   0.49366877   0.50119634   0.5114546    0.52602447
   0.53757127   0.55648674   0.57777168   0.61012604   0.61496313
   0.63158976   0.67510891   0.69874113   0.71183089   0.71900209
   0.76100575   0.7823243    0.86686331   0.87909395   0.90168395
   0.93478893   0.95283768   1.00698799   1.38628546]
nelec by numeric integration = 146.00000055275677
    CPU time for vxc     38.15 sec, wall time     15.81 sec
E1 = -4139.656117120476  Ecoul = 1914.668186471224  Exc = -124.85698549887525
cycle= 9 E= -835.515632294476  delta_E= -2.79e-07  |g|= 0.000446  |ddm|= 0.00172
    CPU time for cycle= 9     38.62 sec, wall time     15.88 sec
  HOMO = -0.107648940148061  LUMO = -0.028751330293527
  mo_energy =
[-10.04374476 -10.04167084 -10.02974478 -10.02860105 -10.02858936
 -10.02544643 -10.02361726 -10.02067023 -10.01956339 -10.01732687
 -10.01442896 -10.01380518 -10.01281237 -10.01230173 -10.01161152
 -10.01145152 -10.00992423 -10.00971359 -10.00925805 -10.008363
 -10.00613467 -10.0052398   -0.88973511  -0.86545204  -0.84164491
  -0.79274841  -0.77357806  -0.75167832  -0.73604715  -0.73183778
  -0.70052999  -0.68552809  -0.6615977   -0.63406039  -0.5922535
  -0.58702664  -0.56365044  -0.55738113  -0.5411238   -0.52873474
  -0.4895463   -0.48571999  -0.48149166  -0.45739176  -0.45265506
  -0.43378597  -0.41937056  -0.40894096  -0.40321399  -0.39915405
  -0.38710666  -0.38018879  -0.37233812  -0.36344219  -0.34995609
  -0.34332243  -0.33217309  -0.32766436  -0.31964832  -0.31155433
  -0.30545407  -0.29652047  -0.29092839  -0.28534224  -0.27657492
  -0.25496781  -0.22036369  -0.21257605  -0.20826684  -0.19314646
  -0.18938596  -0.15944083  -0.10764894  -0.02875133   0.03661275
   0.05961325   0.07752063   0.09888834   0.15914075   0.16678238
   0.19438143   0.21434348   0.23451627   0.2476856    0.2709103
   0.28967221   0.30542566   0.31549212   0.32445864   0.33886313
   0.35535237   0.3628241    0.3653755    0.36865643   0.37804228
   0.39908326   0.41399465   0.4260325    0.44240653   0.44881083
   0.46995385   0.49365905   0.50120829   0.51147405   0.52602512
   0.53757323   0.55647732   0.57775235   0.61012495   0.61497203
   0.63158972   0.67509319   0.69872411   0.71182332   0.71900632
   0.76100528   0.78230615   0.86683318   0.87909513   0.90164637
   0.93478241   0.95283558   1.00698691   1.38630438]
nelec by numeric integration = 146.0000005526776
    CPU time for vxc     38.59 sec, wall time     15.90 sec
E1 = -4139.656031387214  Ecoul = 1914.6681232068322  Exc = -124.8570080336302
cycle= 10 E= -835.515632360362  delta_E= -6.59e-08  |g|= 0.00015  |ddm|= 0.000789
    CPU time for cycle= 10     39.08 sec, wall time     15.98 sec
  HOMO = -0.107658240782458  LUMO = -0.0287607677313198
  mo_energy =
[-10.0437818  -10.04168858 -10.02976705 -10.028614   -10.02858392
 -10.02549211 -10.02360016 -10.02068322 -10.01954336 -10.01736049
 -10.01444603 -10.01380539 -10.01281464 -10.01230884 -10.01161426
 -10.01139992 -10.00996176 -10.00971722 -10.00922642 -10.00837586
 -10.00615413 -10.00523031  -0.88975564  -0.86546862  -0.8416328
  -0.79275569  -0.77359867  -0.75167244  -0.73605048  -0.73184355
  -0.70053188  -0.68553881  -0.66160559  -0.63406403  -0.59225707
  -0.58703035  -0.56366278  -0.5573857   -0.54112975  -0.52873518
  -0.48954992  -0.48572269  -0.48150264  -0.45738777  -0.45266381
  -0.43378853  -0.41938255  -0.40894648  -0.40322152  -0.39915934
  -0.38710729  -0.38019654  -0.37235043  -0.36345347  -0.34996472
  -0.34331663  -0.33218426  -0.3276678   -0.31964907  -0.31155369
  -0.30545728  -0.29652707  -0.29093363  -0.28535542  -0.27658013
  -0.25496351  -0.22036801  -0.21257498  -0.20826643  -0.19316242
  -0.18938965  -0.15944922  -0.10765824  -0.02876077   0.03660494
   0.05961474   0.07752329   0.09888046   0.1591153    0.16678489
   0.19437336   0.21432765   0.23451563   0.24768547   0.27091673
   0.28966657   0.30542211   0.31548573   0.32444555   0.33885712
   0.35533982   0.36281315   0.36538158   0.3686581    0.37803372
   0.39908128   0.41398752   0.42603071   0.44240068   0.44881326
   0.46994515   0.49365986   0.50119424   0.51146008   0.52602204
   0.5375668    0.55647369   0.57776885   0.61011838   0.61495804
   0.63158357   0.67508552   0.69873433   0.71181663   0.71899615
   0.76099789   0.78230649   0.86683971   0.8790869    0.90166136
   0.93476315   0.95281442   1.00696739   1.38627751]
nelec by numeric integration = 146.0000005526474
    CPU time for vxc     38.66 sec, wall time     15.90 sec
E1 = -4139.657174519352  Ecoul = 1914.669273408272  Exc = -124.85701510741535
cycle= 11 E= -835.515632364845  delta_E= -4.48e-09  |g|= 0.000116  |ddm|= 0.000402
    CPU time for cycle= 11     39.30 sec, wall time     16.00 sec
  HOMO = -0.107652476625614  LUMO = -0.0287537074746625
  mo_energy =
[-10.04377051 -10.0416786  -10.02976593 -10.02860148 -10.02858911
 -10.02546697 -10.02359459 -10.02067031 -10.01954677 -10.01734129
 -10.01443977 -10.01380664 -10.01280223 -10.0122973  -10.01160252
 -10.01142604 -10.00994415 -10.00970446 -10.00924198 -10.00836207
 -10.00613791 -10.00523063  -0.88974617  -0.86546016  -0.84163418
  -0.7927489   -0.77358901  -0.75167205  -0.73604611  -0.73183731
  -0.70052797  -0.68553053  -0.66160077  -0.63405931  -0.59225325
  -0.5870268   -0.56365575  -0.55738123  -0.54112472  -0.52873302
  -0.48954682  -0.48571984  -0.48149547  -0.45738885  -0.45265676
  -0.4337852   -0.41937759  -0.40894196  -0.40321577  -0.39915575
  -0.38710409  -0.38018929  -0.37234363  -0.36344633  -0.34996104
  -0.3433168   -0.33217739  -0.32766598  -0.31964874  -0.31155131
  -0.3054523   -0.29652141  -0.29092827  -0.28534828  -0.27657691
  -0.25496249  -0.22036308  -0.21257216  -0.20826421  -0.19315648
  -0.18938561  -0.15944241  -0.10765248  -0.02875371   0.0366119
   0.0596166    0.07752453   0.09888773   0.15912127   0.16678673
   0.19438054   0.21433647   0.23451853   0.247688     0.27091435
   0.28967077   0.305425     0.31548992   0.32445233   0.33886234
   0.35534689   0.36281826   0.36538083   0.36866234   0.37803976
   0.39908571   0.41399097   0.42603203   0.44240489   0.44881205
   0.46994915   0.49366147   0.50120168   0.51146881   0.52602614
   0.53757283   0.55647932   0.57776189   0.61012498   0.61496787
   0.63159013   0.67509535   0.69873227   0.71182317   0.71900285
   0.76100468   0.78231046   0.86684125   0.87909327   0.90166031
   0.93477431   0.95282612   1.00697622   1.38628408]
nelec by numeric integration = 146.00000055264726
    CPU time for vxc     38.14 sec, wall time     15.79 sec
E1 = -4139.656413031251  Ecoul = 1914.6685028028626  Exc = -124.85700599511864
cycle= 12 E= -835.515632369856  delta_E= -5.01e-09  |g|= 2.09e-05  |ddm|= 0.000198
    CPU time for cycle= 12     38.52 sec, wall time     15.85 sec
  HOMO = -0.107652054562626  LUMO = -0.0287532442300577
  mo_energy =
[-10.04376278 -10.04167966 -10.0297582  -10.02860303 -10.0285876
 -10.02546131 -10.02359773 -10.02066807 -10.01954835 -10.01734297
 -10.01444037 -10.01380127 -10.01280427 -10.0122968  -10.01160407
 -10.01142275 -10.00994388 -10.00970472 -10.00923556 -10.00835995
 -10.00613705 -10.00522995  -0.88974275  -0.86545968  -0.84163392
  -0.79274725  -0.77358576  -0.75167199  -0.73604601  -0.73183645
  -0.70052696  -0.68552979  -0.66160046  -0.6340589   -0.59225238
  -0.58702564  -0.56365531  -0.55738055  -0.54112353  -0.52873249
  -0.48954584  -0.48571899  -0.48149457  -0.4573876   -0.45265613
  -0.43378467  -0.41937669  -0.40894055  -0.40321454  -0.39915448
  -0.38710407  -0.38018932  -0.37234268  -0.36344575  -0.34995958
  -0.34331641  -0.33217629  -0.32766498  -0.31964834  -0.31155113
  -0.30545197  -0.29652006  -0.29092745  -0.28534614  -0.27657612
  -0.25496252  -0.22036252  -0.21257148  -0.20826412  -0.19315381
  -0.18938429  -0.15944172  -0.10765205  -0.02875324   0.03661231
   0.0596177    0.07752524   0.09888844   0.15912533   0.16678714
   0.19438144   0.21433887   0.23451888   0.24768762   0.2709146
   0.28967152   0.30542521   0.3154908    0.32445196   0.33886271
   0.35534817   0.36281965   0.3653815    0.36866153   0.37803976
   0.39908544   0.4139917    0.42603215   0.44240598   0.44881277
   0.46995107   0.49366176   0.50120344   0.51146919   0.52602686
   0.53757359   0.55648048   0.57776317   0.61012533   0.61496934
   0.63159111   0.67509545   0.69873309   0.71182421   0.7190039
   0.76100606   0.78231047   0.86684123   0.87909595   0.90166049
   0.93477572   0.95282755   1.00697632   1.38629038]
nelec by numeric integration = 146.0000005526465
    CPU time for vxc     38.04 sec, wall time     15.86 sec
E1 = -4139.656341574938  Ecoul = 1914.668429237051  Exc = -124.857003885729
cycle= 13 E= -835.515632369965  delta_E= -1.09e-10  |g|= 1.39e-05  |ddm|= 5.01e-05
    CPU time for cycle= 13     38.51 sec, wall time     15.93 sec
  HOMO = -0.107652551748342  LUMO = -0.0287537049566914
  mo_energy =
[-10.04376579 -10.04167976 -10.02976059 -10.02860212 -10.02858809
 -10.02546429 -10.02359864 -10.02066913 -10.01954782 -10.01734302
 -10.01443977 -10.01380392 -10.01280366 -10.01229766 -10.01160372
 -10.01142395 -10.00994427 -10.0097061  -10.00923886 -10.00836186
 -10.00613892 -10.00523109  -0.88974423  -0.86546006  -0.84163492
  -0.79274809  -0.77358716  -0.75167253  -0.73604654  -0.73183731
  -0.7005275   -0.68553035  -0.66160089  -0.63405949  -0.59225302
  -0.58702627  -0.5636557   -0.55738132  -0.54112423  -0.52873307
  -0.48954644  -0.48571948  -0.48149518  -0.45738848  -0.45265672
  -0.43378528  -0.41937701  -0.4089413   -0.40321528  -0.39915522
  -0.38710441  -0.38018953  -0.37234321  -0.36344627  -0.34996014
  -0.34331712  -0.33217698  -0.32766551  -0.31964863  -0.31155158
  -0.30545245  -0.29652073  -0.29092793  -0.28534721  -0.2765766
  -0.25496302  -0.22036318  -0.21257223  -0.2082645   -0.19315447
  -0.18938485  -0.15944226  -0.10765255  -0.0287537    0.0366118
   0.05961702   0.07752462   0.09888775   0.15912467   0.16678648
   0.19438065   0.21433779   0.23451828   0.24768745   0.2709142
   0.289671     0.30542487   0.3154904    0.32445187   0.33886239
   0.35534756   0.36281905   0.36538088   0.36866157   0.37803935
   0.3990854    0.41399141   0.42603197   0.44240538   0.44881236
   0.4699504    0.49366121   0.5012025    0.5114687    0.52602625
   0.53757289   0.55647978   0.57776223   0.61012462   0.61496819
   0.63159024   0.67509514   0.69873241   0.71182358   0.71900313
   0.761005     0.78230974   0.86684037   0.87909463   0.90165925
   0.93477481   0.95282665   1.00697627   1.38628826]
nelec by numeric integration = 146.00000055264837
    CPU time for vxc     38.06 sec, wall time     15.89 sec
E1 = -4139.656411138976  Ecoul = 1914.668501176065  Exc = -124.85700626076897
cycle= 14 E= -835.51563237003  delta_E= -6.46e-11  |g|= 3.24e-06  |ddm|= 2.28e-05
    CPU time for cycle= 14     38.45 sec, wall time     15.95 sec
  HOMO = -0.107652861515647  LUMO = -0.0287538020471858
  mo_energy =
[-10.04376655 -10.04168057 -10.02976159 -10.02860302 -10.02858865
 -10.02546361 -10.02359796 -10.02066933 -10.01954802 -10.01734298
 -10.01444184 -10.01380365 -10.01280386 -10.01229716 -10.01160377
 -10.01142353 -10.00994553 -10.00970597 -10.00923852 -10.00836121
 -10.00613703 -10.00523121  -0.88974457  -0.86546072  -0.84163482
  -0.79274822  -0.77358714  -0.75167257  -0.73604665  -0.73183709
  -0.7005276   -0.68553039  -0.6616014   -0.63405937  -0.59225305
  -0.58702643  -0.5636559   -0.55738131  -0.54112422  -0.5287331
  -0.48954653  -0.48571966  -0.48149516  -0.45738854  -0.45265676
  -0.43378524  -0.41937749  -0.40894129  -0.40321533  -0.3991554
  -0.3871044   -0.38018962  -0.37234347  -0.36344629  -0.34996029
  -0.34331714  -0.33217708  -0.32766554  -0.31964878  -0.31155159
  -0.30545241  -0.29652089  -0.29092804  -0.28534717  -0.27657673
  -0.25496305  -0.22036319  -0.21257212  -0.2082646   -0.19315479
  -0.18938503  -0.15944231  -0.10765286  -0.0287538    0.03661176
   0.05961691   0.07752449   0.0988879    0.1591239    0.16678653
   0.1943807    0.21433764   0.23451811   0.24768729   0.27091424
   0.28967094   0.30542456   0.31549026   0.32445183   0.33886219
   0.35534737   0.36281873   0.36538082   0.36866157   0.37803928
   0.39908532   0.41399111   0.4260317    0.44240531   0.44881214
   0.46995013   0.49366118   0.50120274   0.51146904   0.5260263
   0.53757303   0.55647986   0.57776232   0.6101246    0.61496857
   0.63159038   0.67509516   0.69873232   0.71182336   0.71900298
   0.76100521   0.78230973   0.86684034   0.87909462   0.90165957
   0.93477453   0.95282634   1.00697521   1.38628753]
nelec by numeric integration = 146.00000055264903
    CPU time for vxc     38.27 sec, wall time     15.88 sec
E1 = -4139.65644475264  Ecoul = 1914.6685350407931  Exc = -124.85700651181212
Extra cycle  E= -835.515632370008  delta_E= 2.14e-11  |g|= 8.57e-06  |ddm|= 2.2e-05
    CPU time for scf_cycle    626.62 sec, wall time    256.31 sec
    CPU time for SCF    626.62 sec, wall time    256.31 sec
converged SCF energy = -835.515632370008
nelec by numeric integration = 146.00000055264903
    CPU time for vxc     37.92 sec, wall time     15.71 sec
 ** Mulliken pop  **
pop of  0 C 1s            1.99047
pop of  0 C 2s            1.09814
pop of  0 C 2px           1.00469
pop of  0 C 2py           0.94939
pop of  0 C 2pz           0.94833
pop of  1 C 1s            1.99048
pop of  1 C 2s            1.09903
pop of  1 C 2px           0.99695
pop of  1 C 2py           0.96152
pop of  1 C 2pz           0.95713
pop of  2 C 1s            1.99085
pop of  2 C 2s            1.14617
pop of  2 C 2px           1.00094
pop of  2 C 2py           0.94233
pop of  2 C 2pz           1.00315
pop of  3 C 1s            1.99264
pop of  3 C 2s            1.00016
pop of  3 C 2px           1.01883
pop of  3 C 2py           1.04165
pop of  3 C 2pz           1.01853
pop of  4 C 1s            1.99121
pop of  4 C 2s            1.19381
pop of  4 C 2px           0.97313
pop of  4 C 2py           0.92867
pop of  4 C 2pz           0.96256
pop of  5 C 1s            1.99065
pop of  5 C 2s            1.06937
pop of  5 C 2px           1.01420
pop of  5 C 2py           0.99253
pop of  5 C 2pz           1.02560
pop of  6 C 1s            1.99116
pop of  6 C 2s            1.20689
pop of  6 C 2px           0.97587
pop of  6 C 2py           0.94522
pop of  6 C 2pz           0.95022
pop of  7 C 1s            1.99101
pop of  7 C 2s            1.18701
pop of  7 C 2px           0.98680
pop of  7 C 2py           0.95538
pop of  7 C 2pz           0.95622
pop of  8 C 1s            1.99233
pop of  8 C 2s            1.03739
pop of  8 C 2px           1.00035
pop of  8 C 2py           1.01939
pop of  8 C 2pz           0.98699
pop of  9 C 1s            1.99052
pop of  9 C 2s            1.05706
pop of  9 C 2px           1.00511
pop of  9 C 2py           1.00004
pop of  9 C 2pz           0.95091
pop of  10 C 1s           1.99162
pop of  10 C 2s           1.14955
pop of  10 C 2px          0.96105
pop of  10 C 2py          0.93539
pop of  10 C 2pz          0.98000
pop of  11 C 1s           1.99067
pop of  11 C 2s           1.14594
pop of  11 C 2px          1.00637
pop of  11 C 2py          0.93895
pop of  11 C 2pz          0.99810
pop of  12 C 1s           1.99025
pop of  12 C 2s           0.99321
pop of  12 C 2px          1.03769
pop of  12 C 2py          1.06195
pop of  12 C 2pz          1.01592
pop of  13 C 1s           1.99094
pop of  13 C 2s           1.15976
pop of  13 C 2px          0.96960
pop of  13 C 2py          0.92818
pop of  13 C 2pz          0.91533
pop of  14 C 1s           1.99094
pop of  14 C 2s           1.07760
pop of  14 C 2px          1.04046
pop of  14 C 2py          0.94776
pop of  14 C 2pz          0.98345
pop of  15 C 1s           1.99153
pop of  15 C 2s           1.23296
pop of  15 C 2px          0.94213
pop of  15 C 2py          0.91874
pop of  15 C 2pz          0.94107
pop of  16 C 1s           1.99119
pop of  16 C 2s           1.13849
pop of  16 C 2px          0.98823
pop of  16 C 2py          0.96201
pop of  16 C 2pz          0.89416
pop of  17 C 1s           1.99092
pop of  17 C 2s           1.12327
pop of  17 C 2px          0.98769
pop of  17 C 2py          0.94890
pop of  17 C 2pz          0.97918
pop of  18 C 1s           1.99058
pop of  18 C 2s           1.10462
pop of  18 C 2px          1.04111
pop of  18 C 2py          0.96131
pop of  18 C 2pz          1.00722
pop of  19 C 1s           1.99068
pop of  19 C 2s           1.06738
pop of  19 C 2px          0.98161
pop of  19 C 2py          1.02111
pop of  19 C 2pz          1.03224
pop of  20 C 1s           1.99126
pop of  20 C 2s           1.19288
pop of  20 C 2px          0.94770
pop of  20 C 2py          0.95669
pop of  20 C 2pz          0.94470
pop of  21 C 1s           1.99093
pop of  21 C 2s           1.15307
pop of  21 C 2px          1.00162
pop of  21 C 2py          0.99639
pop of  21 C 2pz          0.94418
pop of  22 H 1s           0.91328
pop of  23 H 1s           0.95208
pop of  24 H 1s           0.93133
pop of  25 H 1s           0.91920
pop of  26 H 1s           0.92159
pop of  27 H 1s           0.91387
pop of  28 H 1s           0.92258
pop of  29 H 1s           0.91867
pop of  30 H 1s           0.95540
pop of  31 H 1s           0.93595
pop of  32 H 1s           0.92450
pop of  33 H 1s           0.91492
pop of  34 H 1s           0.94507
pop of  35 H 1s           0.90417
 ** Mulliken atomic charges  **
charge of    0C =      0.00898
charge of    1C =     -0.00511
charge of    2C =     -0.08343
charge of    3C =     -0.07181
charge of    4C =     -0.04938
charge of    5C =     -0.09235
charge of    6C =     -0.06936
charge of    7C =     -0.07642
charge of    8C =     -0.03644
charge of    9C =     -0.00364
charge of   10C =     -0.01761
charge of   11C =     -0.08003
charge of   12C =     -0.09903
charge of   13C =      0.03619
charge of   14C =     -0.04021
charge of   15C =     -0.02643
charge of   16C =      0.02591
charge of   17C =     -0.02995
charge of   18C =     -0.10484
charge of   19C =     -0.09301
charge of   20C =     -0.03323
charge of   21C =     -0.08618
charge of   22H =      0.08672
charge of   23H =      0.04792
charge of   24H =      0.06867
charge of   25H =      0.08080
charge of   26H =      0.07841
charge of   27H =      0.08613
charge of   28H =      0.07742
charge of   29H =      0.08133
charge of   30H =      0.04460
charge of   31H =      0.06405
charge of   32H =      0.07550
charge of   33H =      0.08508
charge of   34H =      0.05493
charge of   35H =      0.09583
Dipole moment(X, Y, Z, Debye): -0.14204,  0.71246, -0.52068
nelec by numeric integration = 146.00000055264903
    CPU time for vxc     38.07 sec, wall time     15.77 sec
E1 = -4139.65644475264  Ecoul = 1914.6685350407922  Exc = -124.85700651181212
nelec by numeric integration = 146.00000055264903
    CPU time for vxc     37.84 sec, wall time     15.73 sec
E1 = -4139.65644475264  Ecoul = 1914.668535040792  Exc = -124.85700651181212
