System: uname_result(system='Linux', node='cosmopc18', release='5.15.0-97-generic', version='#107-Ubuntu SMP Wed Feb 7 13:26:48 UTC 2024', machine='x86_64')  Threads 4
Python 3.11.8 (main, Feb 26 2024, 21:39:34) [GCC 11.2.0]
numpy 1.26.4  scipy 1.11.4
Date: Tue Apr  9 12:11:10 2024
PySCF version 2.3.0
PySCF path  /home/saade/miniconda3/envs/tutorial/lib/python3.11/site-packages/pyscf

[ENV] PYSCFAD_BACKEND torch
[CONFIG] conf_file None
[INPUT] verbose = 5
[INPUT] max_memory = 4000 
[INPUT] num. atoms = 36
[INPUT] num. electrons = 146
[INPUT] charge = 0
[INPUT] spin (= nelec alpha-beta = 2S) = 0
[INPUT] symmetry False subgroup None
[INPUT] Mole.unit = angstrom
[INPUT] Symbol           X                Y                Z      unit          X                Y                Z       unit  Magmom
[INPUT]  1 C     -0.044934000000   3.751196000000   0.816933000000 AA   -0.084912953681   7.088733079564   1.543779632119 Bohr   0.0
[INPUT]  2 C     -0.079200000000   3.707378000000  -0.760563000000 AA   -0.149666309066   7.005929060238  -1.437255770478 Bohr   0.0
[INPUT]  3 C      0.096436000000   4.878543000000   1.420229000000 AA    0.182237628549   9.219110156914   2.683843844165 Bohr   0.0
[INPUT]  4 C     -0.071683000000   2.472149000000   1.384790000000 AA   -0.135461237787   4.671684549117   2.616873840036 Bohr   0.0
[INPUT]  5 C     -0.227232000000   4.807127000000  -1.307702000000 AA   -0.429406246737   9.084153476002  -2.471198632546 Bohr   0.0
[INPUT]  6 C     -0.027809000000   2.520139000000  -1.527877000000 AA   -0.052551393798   4.762372505835  -2.887269082022 Bohr   0.0
[INPUT]  7 C      0.002583000000   6.027416000000  -0.841337000000 AA    0.004881162580  11.390165478821  -1.589896508463 Bohr   0.0
[INPUT]  8 C      0.031911000000   5.983771000000   0.511798000000 AA    0.060303050361  11.307688382115   0.967158051100 Bohr   0.0
[INPUT]  9 C     -0.032402000000   1.252590000000   0.640092000000 AA   -0.061230905888   2.367052046369   1.209598574525 Bohr   0.0
[INPUT] 10 C     -0.004550000000   1.283103000000  -0.555958000000 AA   -0.008598253867   2.424713259608  -1.050608356761 Bohr   0.0
[INPUT] 11 C     -0.086494000000  -0.045172000000   1.409198000000 AA   -0.163449971418  -0.085362708499   2.662998275285 Bohr   0.0
[INPUT] 12 C     -0.047456000000   0.048165000000  -1.389965000000 AA   -0.089678842967   0.091018658790  -2.626653172731 Bohr   0.0
[INPUT] 13 C     -0.197734000000  -1.121598000000   0.790214000000 AA   -0.373663105515  -2.119513041860   1.493288039797 Bohr   0.0
[INPUT] 14 C      0.051249000000  -1.243395000000  -0.617544000000 AA    0.096846574158  -2.349676014654  -1.166989029868 Bohr   0.0
[INPUT] 15 C     -0.197176000000  -2.349053000000   1.345236000000 AA   -0.372608638337  -4.439066822088   2.542127612905 Bohr   0.0
[INPUT] 16 C      0.085787000000  -2.466264000000  -1.396387000000 AA    0.162113935048  -4.660563510874  -2.638788993903 Bohr   0.0
[INPUT] 17 C      0.018685000000  -3.718797000000   0.612903000000 AA    0.035309532637  -7.027507842854   1.158218810924 Bohr   0.0
[INPUT] 18 C     -0.106792000000  -3.714481000000  -0.748639000000 AA   -0.201807632295  -7.019351784901  -1.414722676168 Bohr   0.0
[INPUT] 19 C      0.070545000000  -5.076858000000   1.275253000000 AA    0.133310729457  -9.593871193307   2.409878909530 Bohr   0.0
[INPUT] 20 C     -0.052795000000  -4.918189000000  -1.378175000000 AA   -0.099768090746  -9.294030238849  -2.604373301722 Bohr   0.0
[INPUT] 21 C      0.060330000000  -6.067093000000   0.882343000000 AA    0.114007177095 -11.465144142266   1.667386617927 Bohr   0.0
[INPUT] 22 C      0.120451000000  -6.094492000000  -0.704549000000 AA    0.227619401430 -11.516920748353  -1.331404651336 Bohr   0.0
[INPUT] 23 H     -0.274491000000   5.040506000000   2.688199000000 AA   -0.518712813658   9.525175869227   5.079959878330 Bohr   0.0
[INPUT] 24 H      0.039545000000   2.559167000000   2.672583000000 AA    0.074729219596   4.836124737025   5.050449915168 Bohr   0.0
[INPUT] 25 H     -0.251237000000   4.840929000000  -2.458226000000 AA   -0.474769122357   9.148029998465  -4.645373892285 Bohr   0.0
[INPUT] 26 H      0.041825000000   2.433501000000  -2.519352000000 AA    0.079037795160   4.598650413855  -4.760885291375 Bohr   0.0
[INPUT] 27 H      0.129536000000   6.893336000000  -1.138104000000 AA    0.244787563272  13.026517124605  -2.150704861272 Bohr   0.0
[INPUT] 28 H      0.149961000000   7.079116000000   1.273522000000 AA    0.283385219366  13.377590444027   2.406607793608 Bohr   0.0
[INPUT] 29 H     -0.026405000000   0.117545000000   2.374166000000 AA   -0.049898218319   0.222127857312   4.486523514254 Bohr   0.0
[INPUT] 30 H      0.066874000000   0.095676000000  -2.586226000000 AA    0.126373544854   0.180801436694  -4.887258836229 Bohr   0.0
[INPUT] 31 H     -0.057447000000  -2.588600000000   2.527455000000 AA   -0.108559096678  -4.891745046049   4.776197742163 Bohr   0.0
[INPUT] 32 H     -0.012932000000  -2.289018000000  -2.572104000000 AA   -0.024437938243  -4.325617114200  -4.860572123898 Bohr   0.0
[INPUT] 33 H      0.115211000000  -4.972156000000   2.546544000000 AA    0.217717236537  -9.396013088613   4.812270724154 Bohr   0.0
[INPUT] 34 H      0.120302000000  -4.885515000000  -2.562743000000 AA    0.227337832237  -9.232285327454  -4.842882397646 Bohr   0.0
[INPUT] 35 H     -0.111346000000  -7.042899000000   1.147741000000 AA   -0.210413445066 -13.309150232973   2.168916151934 Bohr   0.0
[INPUT] 36 H      0.344848000000  -6.837104000000  -1.227529000000 AA    0.651668274604 -12.920254045168  -2.319693619961 Bohr   0.0
[INPUT] ---------------- BASIS SET ---------------- 
[INPUT] l, kappa, [nprim/nctr], expnt,             c_1 c_2 ...
[INPUT] H
[INPUT] 0    0    [3    /1   ]  3.42525091        0.15432897
                                0.62391373        0.53532814
                                0.1688554         0.44463454
[INPUT] C
[INPUT] 0    0    [3    /1   ]  71.616837         0.15432897
                                13.045096         0.53532814
                                3.5305122         0.44463454
[INPUT] 0    0    [3    /1   ]  2.9412494         -0.09996723
                                0.6834831         0.39951283
                                0.2222899         0.70011547
[INPUT] 1    0    [3    /1   ]  2.9412494         0.15591627
                                0.6834831         0.60768372
                                0.2222899         0.39195739

nuclear repulsion = 1504.16822159984
number of shells = 80
number of NR pGTOs = 372
number of NR cGTOs = 124
basis = sto3g
ecp = {}
CPU time:     21882.58
atom C rad-grids = 99, ang-grids = [ 50  50  50  50  50  50  50  50  50  50  50  50  50  50  50  50  50  50
  50  50  50  50  50  50  50  50  50  50  50  50  50  86  86  86  86  86
  86  86  86  86  86  86  86 434 434 434 434 434 434 434 434 434 590 590
 590 590 590 590 590 590 590 590 590 590 590 590 590 590 590 590 590 590
 590 590 590 590 590 590 590 434 434 434 434 434 434 434 434 434 434 434
 434 434 434 434 434 434 434 434 434]
atom H rad-grids = 99, ang-grids = [ 50  50  50  50  50  50  50  50  50  50  50  50  50  50  50  50  50  50
  50  50  50  50  50  50  50  50  50  50  86  86  86  86  86  86  86 434
 434 434 434 434 434 434 434 590 590 590 590 590 590 590 590 590 590 590
 590 590 590 590 590 590 590 590 590 590 590 590 590 590 590 434 434 434
 434 434 434 434 434 434 434 434 434 434 434 434 434 434 434 434 434 434
 434 434 434 434 434 434 434 434 434]
tot_boxes 5270, boxes in each direction [ 8 29 15]
Padding 0 grids
tot grids = 1157832


******** <class 'pyscf.dft.rks.RKS'> ********
method = RKS
initial guess = minao
damping factor = 0
level_shift factor = 0
DIIS = <class 'pyscf.scf.diis.CDIIS'>
diis_start_cycle = 1
diis_space = 8
SCF conv_tol = 1e-10
SCF conv_tol_grad = None
SCF max_cycles = 50
direct_scf = True
direct_scf_tol = 1e-13
chkfile to save SCF result = /home/saade/mlelec/tutorials/tmprompvt68
max_memory 4000 MB (current use 637 MB)
XC library pyscf.dft.libxc version 6.1.0
    S. Lehtola, C. Steigemann, M. J.T. Oliveira, and M. A.L. Marques.,  SoftwareX 7, 1–5 (2018)
XC functionals = b3lypg
    P. J. Stephens, F. J. Devlin, C. F. Chabalowski, and M. J. Frisch.,  J. Phys. Chem. 98, 11623 (1994)
radial grids: 
    Treutler-Ahlrichs [JCP 102, 346 (1995); DOI:10.1063/1.469408] (M4) radial grids
    
becke partition: Becke, JCP 88, 2547 (1988); DOI:10.1063/1.454033
pruning grids: <function nwchem_prune at 0x7f9db5616ca0>
grids dens level: 3
symmetrized grids: False
atomic radii adjust function: <function treutler_atomic_radii_adjust at 0x7f9db5617380>
User specified grid scheme (99, 590)
small_rho_cutoff = 1e-07
Set gradient conv threshold to 1e-05
Initial guess from minao.
nelec by numeric integration = 145.2724015644074
    CPU time for vxc     37.66 sec, wall time     15.79 sec
E1 = -4108.191002984441  Ecoul = 1888.491572022528  Exc = -126.1401349409839
init E= -841.671344303056
cond(S) = 33.909881081296
    CPU time for initialize scf     47.23 sec, wall time     18.12 sec
  HOMO = -0.198201810850563  LUMO = -0.14967854711164
  mo_energy =
[-10.16222194 -10.15249773 -10.13924952 -10.13529736 -10.12734048
 -10.12549565 -10.12456936 -10.11933044 -10.11586029 -10.11215469
 -10.10687839 -10.09359078 -10.09276353 -10.09272546 -10.09185098
 -10.09090115 -10.08676187 -10.08654711 -10.08653224 -10.08555386
 -10.07820884 -10.07644099  -1.10520033  -1.08517808  -1.06885462
  -1.01055522  -0.96807672  -0.94470375  -0.91208039  -0.89933008
  -0.86952725  -0.82864697  -0.7985012   -0.76638585  -0.73705278
  -0.70956135  -0.68708266  -0.66621523  -0.65211389  -0.63981928
  -0.59901132  -0.58379035  -0.58298007  -0.56257549  -0.54896099
  -0.51918342  -0.51128018  -0.50742892  -0.48997124  -0.48129764
  -0.47931297  -0.46479475  -0.45810894  -0.4544813   -0.44674948
  -0.44176682  -0.43289076  -0.42217834  -0.41921252  -0.40131147
  -0.39494542  -0.37293656  -0.35983529  -0.35317874  -0.35088216
  -0.33461505  -0.32283091  -0.30989788  -0.30140117  -0.29923506
  -0.27597955  -0.24152746  -0.19820181  -0.14967855  -0.10983568
  -0.06412456  -0.04380317  -0.02550273   0.0114671    0.0233985
   0.05218673   0.08016699   0.08473998   0.11511677   0.12829216
   0.15334702   0.16358254   0.17556855   0.1835714    0.19112409
   0.19448665   0.19858146   0.20947665   0.21553943   0.24280452
   0.2477797    0.2629757    0.28577293   0.296528     0.31512936
   0.32498105   0.35667195   0.37136026   0.39097144   0.41058275
   0.42344865   0.43807545   0.45412144   0.47377576   0.50274181
   0.52058041   0.53393192   0.55116419   0.5704923    0.59170027
   0.59829018   0.63391988   0.65407692   0.66719263   0.7226399
   0.73693429   0.79238814   0.85764616   1.08431363]
nelec by numeric integration = 146.00000207380987
    CPU time for vxc     38.95 sec, wall time     16.08 sec
E1 = -4123.380073069892  Ecoul = 1908.3874176505067  Exc = -124.77956755780275
cycle= 1 E= -835.604001377347  delta_E= 6.07  |g|= 0.308  |ddm|= 9.31
    CPU time for cycle= 1     39.31 sec, wall time     16.13 sec
  HOMO = -0.0823175586596787  LUMO = 9.62572329034706e-06
  mo_energy =
[-1.00585892e+01 -1.00334925e+01 -1.00163672e+01 -1.00158381e+01
 -1.00045628e+01 -1.00032485e+01 -1.00002243e+01 -9.99529530e+00
 -9.99404874e+00 -9.98795323e+00 -9.98749106e+00 -9.98381163e+00
 -9.98086650e+00 -9.97387963e+00 -9.97343155e+00 -9.97049907e+00
 -9.96991577e+00 -9.96861992e+00 -9.96810426e+00 -9.95304440e+00
 -9.93594278e+00 -9.88563249e+00 -8.41982133e-01 -8.23317565e-01
 -8.08080440e-01 -7.71423379e-01 -7.43708672e-01 -7.38966865e-01
 -7.17497091e-01 -6.99081878e-01 -6.80891529e-01 -6.55792711e-01
 -6.22296087e-01 -6.10985026e-01 -5.86762051e-01 -5.50958595e-01
 -5.46019237e-01 -5.27755805e-01 -5.21520325e-01 -5.08754569e-01
 -4.88313042e-01 -4.62343095e-01 -4.55368531e-01 -4.43301067e-01
 -4.34630846e-01 -4.12097740e-01 -3.91408349e-01 -3.89789296e-01
 -3.84935532e-01 -3.71812485e-01 -3.62832095e-01 -3.54332172e-01
 -3.51528637e-01 -3.47099955e-01 -3.39754838e-01 -3.31829020e-01
 -3.18834077e-01 -3.11145536e-01 -3.10037922e-01 -2.92917236e-01
 -2.79420596e-01 -2.69685689e-01 -2.51209351e-01 -2.44615032e-01
 -2.40018067e-01 -2.36529121e-01 -2.24544762e-01 -2.13297399e-01
 -1.97674027e-01 -1.86088284e-01 -1.61021164e-01 -1.29887755e-01
 -8.23175587e-02  9.62572329e-06  4.22501215e-02  9.00479720e-02
  1.12800823e-01  1.16386705e-01  1.58338582e-01  1.93930028e-01
  2.11756145e-01  2.22188032e-01  2.42334290e-01  2.54930112e-01
  2.67921665e-01  2.97320967e-01  3.05943889e-01  3.15647527e-01
  3.27288511e-01  3.35575305e-01  3.41024294e-01  3.56870431e-01
  3.58794668e-01  3.67436549e-01  3.86072504e-01  3.90481817e-01
  4.18577747e-01  4.39057334e-01  4.60665567e-01  4.72001459e-01
  4.86655289e-01  5.01030117e-01  5.23239203e-01  5.45450923e-01
  5.60048923e-01  5.65446120e-01  6.00369647e-01  6.19468033e-01
  6.35205518e-01  6.55994173e-01  6.66529658e-01  6.85036013e-01
  7.04428798e-01  7.40518363e-01  7.46359596e-01  7.66439326e-01
  8.13847931e-01  8.18333903e-01  8.38696898e-01  8.76163761e-01
  9.24581829e-01  9.54069792e-01  1.05643280e+00  1.27800429e+00]
nelec by numeric integration = 146.00000211798215
    CPU time for vxc     38.27 sec, wall time     15.87 sec
E1 = -4117.273994733763  Ecoul = 1902.2164030085175  Exc = -124.62099945262592
cycle= 2 E= -835.51036957803  delta_E= 0.0936  |g|= 0.586  |ddm|= 1.47
    CPU time for cycle= 2     38.77 sec, wall time     15.96 sec
  HOMO = -0.092097829363408  LUMO = -0.00955676646096831
  mo_energy =
[-1.00327135e+01 -1.00232875e+01 -1.00224259e+01 -1.00186765e+01
 -1.00165854e+01 -1.00150764e+01 -1.00144567e+01 -1.00090627e+01
 -1.00088059e+01 -1.00083354e+01 -1.00056241e+01 -1.00047545e+01
 -1.00044138e+01 -1.00037005e+01 -1.00006510e+01 -9.99982443e+00
 -9.99407572e+00 -9.98788433e+00 -9.98548793e+00 -9.97496552e+00
 -9.96958997e+00 -9.96181631e+00 -8.53661682e-01 -8.41215149e-01
 -8.29694775e-01 -7.93325700e-01 -7.59532363e-01 -7.49779636e-01
 -7.25048052e-01 -7.08785064e-01 -6.91000988e-01 -6.58075089e-01
 -6.46130872e-01 -6.11986463e-01 -5.93489097e-01 -5.72968863e-01
 -5.52405651e-01 -5.39196823e-01 -5.27314413e-01 -5.17384705e-01
 -4.88300698e-01 -4.74643681e-01 -4.71969445e-01 -4.54383670e-01
 -4.42535180e-01 -4.19829577e-01 -4.06133031e-01 -4.00577325e-01
 -3.87273995e-01 -3.84396723e-01 -3.69806130e-01 -3.65978651e-01
 -3.61802740e-01 -3.55393560e-01 -3.49480799e-01 -3.40263698e-01
 -3.33582053e-01 -3.24149720e-01 -3.20467972e-01 -3.10161466e-01
 -2.92736564e-01 -2.79023822e-01 -2.71293945e-01 -2.58276100e-01
 -2.52408703e-01 -2.46602072e-01 -2.32401822e-01 -2.23076536e-01
 -1.99961995e-01 -1.95668134e-01 -1.74623256e-01 -1.37682972e-01
 -9.20978294e-02 -9.55676646e-03  3.15492154e-02  7.71278395e-02
  1.01684357e-01  1.17569502e-01  1.49068155e-01  1.74319310e-01
  1.98510163e-01  2.09591548e-01  2.26840822e-01  2.46382581e-01
  2.69260150e-01  2.86286875e-01  3.08133766e-01  3.15014155e-01
  3.22775470e-01  3.29499027e-01  3.36616361e-01  3.40942639e-01
  3.43342556e-01  3.51138800e-01  3.80775820e-01  3.92092208e-01
  4.10751540e-01  4.30547575e-01  4.48035954e-01  4.69685773e-01
  4.72154423e-01  5.06780626e-01  5.16656323e-01  5.41024785e-01
  5.54573878e-01  5.66925997e-01  5.80120362e-01  6.03872364e-01
  6.12178638e-01  6.52003700e-01  6.55154281e-01  6.74312123e-01
  6.92706834e-01  7.18108620e-01  7.32457477e-01  7.47578358e-01
  7.83056160e-01  7.95280012e-01  8.12951230e-01  8.68949838e-01
  8.87044682e-01  9.44606669e-01  1.01563781e+00  1.25406501e+00]
nelec by numeric integration = 146.00000208297456
    CPU time for vxc     38.63 sec, wall time     15.94 sec
E1 = -4119.105630331698  Ecoul = 1903.966922135599  Exc = -124.64475523725271
cycle= 3 E= -835.615241833511  delta_E= -0.105  |g|= 0.269  |ddm|=  1.4
    CPU time for cycle= 3     39.37 sec, wall time     16.05 sec
  HOMO = -0.100837026393075  LUMO = -0.0238555834333216
  mo_energy =
[-10.04243818 -10.03883217 -10.03712253 -10.03625482 -10.03617775
 -10.03124487 -10.0307592  -10.02280775 -10.02192826 -10.02142326
 -10.01777868 -10.01445665 -10.01354604 -10.01274399 -10.01271106
 -10.01070307 -10.01060835 -10.00831223 -10.00581317 -10.00424424
  -9.9980669   -9.9907839   -0.86620791  -0.85296697  -0.8431324
  -0.80362603  -0.77213179  -0.75998626  -0.73805302  -0.72072589
  -0.69920226  -0.6699027   -0.6478307   -0.62990289  -0.60485688
  -0.57947938  -0.56272     -0.54466177  -0.53859052  -0.5258117
  -0.49894009  -0.48093057  -0.47683843  -0.46652998  -0.45471324
  -0.42428875  -0.41621605  -0.41216593  -0.39766933  -0.39396313
  -0.37905646  -0.37322568  -0.36819183  -0.36185008  -0.36023359
  -0.35052868  -0.34559544  -0.33495179  -0.33279527  -0.31365666
  -0.30325293  -0.28398852  -0.2733529   -0.26822206  -0.26289412
  -0.2529655   -0.24812613  -0.23025674  -0.21271529  -0.20866366
  -0.18250044  -0.14900742  -0.10083703  -0.02385558   0.01942978
   0.06889991   0.0908891    0.10502559   0.14177149   0.16391254
   0.19060881   0.20657904   0.21837396   0.24426554   0.26320367
   0.27858107   0.29948014   0.30779739   0.3165362    0.32124913
   0.32774985   0.33365276   0.33809677   0.34338601   0.37126666
   0.37566252   0.40030332   0.42437278   0.4330142    0.45869141
   0.46218098   0.49313985   0.50174037   0.5294355    0.54474334
   0.55144335   0.57224584   0.59230439   0.60431126   0.63748539
   0.64839279   0.66420837   0.68056881   0.71339667   0.72637467
   0.73719679   0.77619122   0.78887261   0.80237564   0.85698167
   0.87479526   0.92523156   1.00034479   1.23551919]
nelec by numeric integration = 146.00000209853795
    CPU time for vxc     38.28 sec, wall time     15.91 sec
E1 = -4120.194308155833  Ecoul = 1905.0519046225052  Exc = -124.6683427319775
cycle= 4 E= -835.642524665464  delta_E= -0.0273  |g|= 0.0597  |ddm|= 0.548
    CPU time for cycle= 4     38.71 sec, wall time     15.98 sec
  HOMO = -0.101473870058178  LUMO = -0.0228257699976052
  mo_energy =
[-10.04077249 -10.03550912 -10.03226952 -10.03046331 -10.02637515
 -10.02567901 -10.02458992 -10.02145426 -10.02123875 -10.02117786
 -10.02038103 -10.02001354 -10.0175568  -10.0170202  -10.01428646
 -10.01343961 -10.00885098 -10.00862662 -10.0073893  -10.00514616
 -10.00424169 -10.00053643  -0.86315206  -0.85286742  -0.84190854
  -0.80244799  -0.7712483   -0.75909583  -0.73656584  -0.7203392
  -0.70115128  -0.66884521  -0.64868441  -0.62660475  -0.60502116
  -0.57929286  -0.56224649  -0.54565295  -0.53629728  -0.52653071
  -0.49796635  -0.48097063  -0.4763745   -0.46616598  -0.45203081
  -0.42475212  -0.41512455  -0.41221411  -0.39764159  -0.39244318
  -0.37723557  -0.37275414  -0.36832141  -0.36102932  -0.35984642
  -0.35097802  -0.34425955  -0.33405912  -0.33268155  -0.31512891
  -0.30237371  -0.2853008   -0.27575572  -0.26816513  -0.26230594
  -0.25230809  -0.24681618  -0.23199337  -0.21278758  -0.20851242
  -0.18478642  -0.14869008  -0.10147387  -0.02282577   0.0203422
   0.06700888   0.09066175   0.1039703    0.14204068   0.16395599
   0.19046092   0.20656696   0.21770359   0.24507982   0.26286766
   0.27896851   0.29980335   0.30689603   0.31650836   0.3218938
   0.32806148   0.33285901   0.33853506   0.3443405    0.37085554
   0.37982639   0.40103515   0.42310392   0.43303207   0.45814265
   0.46179415   0.49299083   0.50304916   0.52945461   0.54436211
   0.55604289   0.57245633   0.59461326   0.6051058    0.63799138
   0.64705483   0.66544317   0.68139672   0.71249043   0.7230978
   0.73718033   0.77661836   0.78761882   0.80203016   0.85835737
   0.87824755   0.92984313   1.00627277   1.23479871]
nelec by numeric integration = 146.00000209788953
    CPU time for vxc     38.23 sec, wall time     15.88 sec
E1 = -4120.060797051433  Ecoul = 1904.9176943630248  Exc = -124.6685883839697
cycle= 5 E= -835.643469472537  delta_E= -0.000945  |g|= 0.033  |ddm|= 0.137
    CPU time for cycle= 5     38.65 sec, wall time     15.95 sec
  HOMO = -0.101377254393802  LUMO = -0.0220345488336386
  mo_energy =
[-10.03703634 -10.03568547 -10.03095007 -10.02881928 -10.02688788
 -10.02664693 -10.02222092 -10.02109764 -10.02055484 -10.02010832
 -10.0195478  -10.01776666 -10.01554384 -10.01123608 -10.01037587
 -10.01037498 -10.00901037 -10.00823878 -10.00799165 -10.00749378
 -10.00566279  -9.99691714  -0.86264063  -0.85160765  -0.84079777
  -0.80177939  -0.77052159  -0.75774416  -0.73607421  -0.71953574
  -0.69969441  -0.66838633  -0.64798163  -0.62692866  -0.60350108
  -0.57886903  -0.56156583  -0.54471197  -0.53602984  -0.52517013
  -0.49734476  -0.48031741  -0.4759467   -0.46513348  -0.45234716
  -0.42352091  -0.41467396  -0.41143102  -0.39686514  -0.39230931
  -0.37687161  -0.37254836  -0.36757498  -0.36050753  -0.35915339
  -0.34990449  -0.34372993  -0.33360419  -0.33212911  -0.31387209
  -0.30162838  -0.28452073  -0.27500039  -0.26769061  -0.26112094
  -0.25156866  -0.24649664  -0.23098208  -0.21186512  -0.20775915
  -0.18367107  -0.14821657  -0.10137725  -0.02203455   0.02100992
   0.06807069   0.09158104   0.10535501   0.14334758   0.16473113
   0.19142288   0.20735353   0.2186704    0.24556419   0.26367041
   0.27967766   0.30075851   0.30784902   0.31708217   0.32215762
   0.32873631   0.33358168   0.33891103   0.34470911   0.37081371
   0.3794647    0.40167127   0.42383274   0.43400022   0.45985641
   0.46310157   0.49439052   0.50379109   0.53073063   0.54566213
   0.55539653   0.57280845   0.59486727   0.60550227   0.63873614
   0.64819883   0.66607668   0.68187779   0.71291415   0.7255533
   0.73786858   0.77666504   0.78964603   0.8029822    0.85916981
   0.8779239    0.92997935   1.00592948   1.23757012]
nelec by numeric integration = 146.00000209488846
    CPU time for vxc     38.27 sec, wall time     15.84 sec
E1 = -4119.997079514449  Ecoul = 1904.8503344332419  Exc = -124.665298752386
cycle= 6 E= -835.643822233752  delta_E= -0.000353  |g|= 0.0128  |ddm|= 0.0649
    CPU time for cycle= 6     38.86 sec, wall time     15.93 sec
  HOMO = -0.101127837240249  LUMO = -0.0216781415019814
  mo_energy =
[-10.03711913 -10.03481995 -10.03217841 -10.0285592  -10.02784008
 -10.02744806 -10.02310673 -10.02104989 -10.01971148 -10.01968047
 -10.01878802 -10.0171047  -10.01268147 -10.0120974  -10.01104496
 -10.01048821 -10.00970425 -10.00873905 -10.00732989 -10.00539545
 -10.00455836  -9.99611232  -0.86274798  -0.85133751  -0.8407087
  -0.8016316   -0.77027452  -0.75804042  -0.73586178  -0.71939519
  -0.6994371   -0.66822096  -0.64770349  -0.62655794  -0.60369533
  -0.57864425  -0.56130738  -0.54451908  -0.53597461  -0.52517615
  -0.49708619  -0.48000761  -0.47592851  -0.46497578  -0.45202984
  -0.4238063   -0.41443751  -0.41110988  -0.39663584  -0.39227193
  -0.37688973  -0.37234422  -0.36758173  -0.36065029  -0.35904315
  -0.34991312  -0.34361563  -0.33347143  -0.33198037  -0.31416107
  -0.30156528  -0.28430454  -0.27462499  -0.26741178  -0.26140127
  -0.25182243  -0.24636533  -0.23072619  -0.21169942  -0.20766107
  -0.18324626  -0.14810772  -0.10112784  -0.02167814   0.02112833
   0.06847381   0.09173275   0.10554688   0.14303573   0.16503228
   0.19159458   0.20718574   0.21886105   0.24530576   0.26375899
   0.27965166   0.30074891   0.30777629   0.31711802   0.3223447
   0.32870625   0.3339108    0.33901662   0.34463849   0.37133771
   0.37968      0.40173889   0.42438686   0.43408669   0.45991197
   0.463146     0.494402     0.50399616   0.53076373   0.54568715
   0.55568732   0.57307044   0.59491029   0.60570189   0.6391005
   0.64855464   0.66602944   0.68200636   0.7135211    0.72555263
   0.73814646   0.77715097   0.78937944   0.8031907    0.8593704
   0.87817506   0.92985893   1.00549412   1.23773725]
nelec by numeric integration = 146.0000020969026
    CPU time for vxc     37.91 sec, wall time     15.75 sec
E1 = -4119.999482293137  Ecoul = 1904.8522671157673  Exc = -124.6648846962387
cycle= 7 E= -835.643878273767  delta_E= -5.6e-05  |g|= 0.00354  |ddm|= 0.0237
    CPU time for cycle= 7     38.58 sec, wall time     15.86 sec
  HOMO = -0.101076761488879  LUMO = -0.0215941576133619
  mo_energy =
[-10.03753803 -10.03504132 -10.031937   -10.02873244 -10.02780215
 -10.0275799  -10.0230459  -10.02142982 -10.01954315 -10.01944739
 -10.0184388  -10.0172331  -10.0126352  -10.01229309 -10.0109914
 -10.00998582 -10.0098231  -10.00788767 -10.00716174 -10.00504709
 -10.00495928  -9.99627652  -0.86274942  -0.85138234  -0.84075587
  -0.80159533  -0.77021085  -0.75807663  -0.73593979  -0.71928769
  -0.69938651  -0.66812663  -0.64768281  -0.62655227  -0.60362085
  -0.57857327  -0.56131306  -0.54448752  -0.53602425  -0.52514422
  -0.49717835  -0.48003556  -0.47588726  -0.46498319  -0.452053
  -0.42370532  -0.41439844  -0.41111636  -0.39661563  -0.3922507
  -0.37684767  -0.3723462   -0.36754117  -0.36063889  -0.35905437
  -0.34980311  -0.34362161  -0.33331724  -0.33192027  -0.3140704
  -0.30153816  -0.28426851  -0.27461677  -0.2673607   -0.26142906
  -0.25181316  -0.24635445  -0.23071938  -0.21172053  -0.20758072
  -0.18319257  -0.14802244  -0.10107676  -0.02159416   0.02120727
   0.06852155   0.09181428   0.10553471   0.14303066   0.16508157
   0.19156783   0.20715259   0.21887614   0.24541608   0.26369646
   0.27961315   0.30078978   0.30789638   0.31718917   0.32242816
   0.32884333   0.33394918   0.33904391   0.34468306   0.37131976
   0.37958365   0.4018384    0.42448936   0.43420503   0.45996627
   0.46319464   0.49452816   0.50391102   0.53084406   0.54572278
   0.55562214   0.57315604   0.59498395   0.60573279   0.63916729
   0.64851063   0.66607576   0.68209626   0.71354761   0.72545932
   0.73823349   0.7772133    0.78935852   0.80327186   0.85924916
   0.87813734   0.92971906   1.00560284   1.23753491]
nelec by numeric integration = 146.0000020968982
    CPU time for vxc     38.30 sec, wall time     15.85 sec
E1 = -4119.994817871761  Ecoul = 1904.8476582832418  Exc = -124.66494433591006
cycle= 8 E= -835.643882324589  delta_E= -4.05e-06  |g|= 0.00126  |ddm|= 0.00602
    CPU time for cycle= 8     38.82 sec, wall time     15.93 sec
  HOMO = -0.101122181170613  LUMO = -0.0216048937742346
  mo_energy =
[-10.03764776 -10.03514185 -10.03189344 -10.02879968 -10.0276834
 -10.02742174 -10.02296235 -10.0213469  -10.01969476 -10.01961001
 -10.01859589 -10.01722679 -10.01266676 -10.01229738 -10.01085538
 -10.00999054 -10.00992153 -10.00814884 -10.00727844 -10.00517149
 -10.00502393  -9.99613537  -0.86273687  -0.8514295   -0.84078524
  -0.80163539  -0.77029504  -0.75804302  -0.73591799  -0.71933226
  -0.69941732  -0.66815838  -0.64772208  -0.62656344  -0.60362731
  -0.57862531  -0.56133588  -0.54452365  -0.53601003  -0.52518594
  -0.4971785   -0.48006696  -0.47590994  -0.46502165  -0.45205714
  -0.42370869  -0.41443182  -0.41115537  -0.39662629  -0.39223939
  -0.37685699  -0.3723495   -0.36756006  -0.36063825  -0.35907504
  -0.34985329  -0.34364648  -0.33337009  -0.33196176  -0.31407004
  -0.30156454  -0.28428538  -0.2746343   -0.2674217   -0.26140027
  -0.2517852   -0.2463394   -0.23075069  -0.21170849  -0.20760813
  -0.18323686  -0.14805299  -0.10112218  -0.02160489   0.02119231
   0.06847665   0.09178406   0.10553936   0.14306205   0.16500585
   0.19154659   0.2071836    0.21884649   0.24542924   0.26371842
   0.27963503   0.30078122   0.30785652   0.31718374   0.32239268
   0.32879202   0.3338918    0.33904839   0.34469181   0.37133258
   0.37961794   0.40179021   0.42442249   0.43416515   0.45993887
   0.46314231   0.4944906    0.50392364   0.53081776   0.54569787
   0.55563685   0.57309321   0.59497021   0.60567182   0.63910209
   0.64847868   0.66608174   0.68206395   0.71348061   0.72548645
   0.73817286   0.77713813   0.78935818   0.80319895   0.8592593
   0.87812014   0.92977537   1.00561531   1.23746373]
nelec by numeric integration = 146.00000209670677
    CPU time for vxc     38.26 sec, wall time     15.89 sec
E1 = -4119.998510843424  Ecoul = 1904.851424835708  Exc = -124.66501840390599
cycle= 9 E= -835.643882811781  delta_E= -4.87e-07  |g|= 0.000536  |ddm|= 0.0019
    CPU time for cycle= 9     38.84 sec, wall time     15.98 sec
  HOMO = -0.101140324528548  LUMO = -0.0216160870223222
  mo_energy =
[-10.03758554 -10.03512872 -10.03197226 -10.02879403 -10.02774475
 -10.02746149 -10.02299487 -10.02133689 -10.0196395  -10.01957086
 -10.0185703  -10.01721106 -10.01269742 -10.01225885 -10.01089034
 -10.01004088 -10.00989542 -10.00810799 -10.00736676 -10.00516078
 -10.00507553  -9.99620807  -0.86275831  -0.85142389  -0.84079343
  -0.80164924  -0.77028599  -0.75805015  -0.73592789  -0.7193393
  -0.69942559  -0.66816499  -0.64774171  -0.62656976  -0.60363753
  -0.57863397  -0.5613395   -0.54452874  -0.53601814  -0.52518774
  -0.49718191  -0.48006814  -0.47592273  -0.46502336  -0.45206692
  -0.42372808  -0.41444004  -0.41115514  -0.39663935  -0.39225206
  -0.37687534  -0.37235451  -0.36755552  -0.36064236  -0.35906916
  -0.34984251  -0.34365013  -0.3333718   -0.33196088  -0.31408137
  -0.30157427  -0.28428374  -0.27463324  -0.26741813  -0.26140793
  -0.2517954   -0.24635045  -0.23074825  -0.21171438  -0.20761602
  -0.18324211  -0.14806299  -0.10114032  -0.02161609   0.0211787
   0.06847253   0.0917774    0.10553695   0.14305531   0.16501426
   0.19153865   0.20718343   0.21884481   0.24541189   0.26371989
   0.27963314   0.30077612   0.30786251   0.31717963   0.32238824
   0.32880159   0.33389662   0.33903454   0.34468522   0.37131623
   0.37961203   0.40178995   0.42442102   0.4341582    0.4599312
   0.46312903   0.49448464   0.50392126   0.53081637   0.54569629
   0.55562521   0.57308547   0.59494715   0.60566229   0.63910644
   0.64846907   0.66606332   0.68204827   0.7134709    0.72549207
   0.73816878   0.77712932   0.78935426   0.80320286   0.85925515
   0.87810044   0.92976342   1.00556399   1.23748382]
nelec by numeric integration = 146.00000209679504
    CPU time for vxc     38.57 sec, wall time     15.92 sec
E1 = -4119.999174136978  Ecoul = 1904.8521017185199  Exc = -124.66503208433444
cycle= 10 E= -835.643882902951  delta_E= -9.12e-08  |g|= 0.000212  |ddm|= 0.000753
    CPU time for cycle= 10     39.03 sec, wall time     15.99 sec
  HOMO = -0.101138643546908  LUMO = -0.0216129421219296
  mo_energy =
[-10.0375824  -10.03513298 -10.03196245 -10.02878908 -10.02772776
 -10.02747958 -10.0230154  -10.02134668 -10.0196673  -10.01958022
 -10.01860168 -10.01723674 -10.01265412 -10.01228316 -10.01084754
 -10.01001039 -10.0099255  -10.00810912 -10.00738635 -10.00519385
 -10.0050881   -9.99621237  -0.86276057  -0.85143405  -0.84079786
  -0.80164991  -0.7702954   -0.75805527  -0.73593405  -0.71934089
  -0.69943025  -0.66816314  -0.64774863  -0.62656587  -0.60363443
  -0.57864092  -0.56134107  -0.54453405  -0.53601797  -0.52518882
  -0.49718588  -0.48007226  -0.47592957  -0.46502375  -0.45206392
  -0.42372514  -0.41444234  -0.41115991  -0.39664117  -0.3922512
  -0.37687669  -0.37235607  -0.36756155  -0.36064629  -0.35907535
  -0.34984431  -0.34365367  -0.3333746   -0.33196423  -0.31408134
  -0.30157499  -0.28429196  -0.27464285  -0.26742756  -0.26141223
  -0.25179894  -0.24634785  -0.23075647  -0.21171719  -0.20761921
  -0.183252    -0.14806007  -0.10113864  -0.02161294   0.02118135
   0.06846242   0.09177062   0.10553315   0.14305156   0.16500503
   0.19153511   0.20717579   0.21883887   0.24541689   0.26371136
   0.27962858   0.30077621   0.30786004   0.31717975   0.32238602
   0.32879934   0.33388859   0.33903396   0.34468359   0.37132163
   0.37961329   0.40178691   0.42441391   0.43415866   0.45993357
   0.46312793   0.49449072   0.50391915   0.53081292   0.54569224
   0.55563112   0.57307844   0.59494703   0.60565784   0.63910274
   0.64846759   0.66606546   0.68205026   0.71346494   0.72547649
   0.73815762   0.7771183    0.78934137   0.80319062   0.85924581
   0.87809477   0.92975373   1.00557153   1.23748445]
nelec by numeric integration = 146.00000209674985
    CPU time for vxc     37.97 sec, wall time     15.77 sec
E1 = -4119.999488220822  Ecoul = 1904.8524288277663  Exc = -124.66504512246235
cycle= 11 E= -835.643882915677  delta_E= -1.27e-08  |g|= 0.000117  |ddm|= 0.000468
    CPU time for cycle= 11     38.52 sec, wall time     15.86 sec
  HOMO = -0.101138677630802  LUMO = -0.0216112286228267
  mo_energy =
[-10.03758992 -10.03514112 -10.03196292 -10.02878823 -10.02772796
 -10.02746126 -10.02299714 -10.02133646 -10.01965536 -10.01958071
 -10.01858028 -10.01721744 -10.01266655 -10.01227522 -10.01085422
 -10.01002868 -10.00990178 -10.00810199 -10.00737899 -10.00517448
 -10.00509032  -9.99620382  -0.86275604  -0.85142779  -0.84079415
  -0.801649    -0.77029092  -0.75804941  -0.73592625  -0.71933904
  -0.69942568  -0.6681619   -0.64774593  -0.62656291  -0.60363248
  -0.57863741  -0.56133856  -0.54453104  -0.53601399  -0.52518632
  -0.49718004  -0.48007002  -0.47592633  -0.46502115  -0.45206224
  -0.42372454  -0.41443973  -0.4111575   -0.39663716  -0.39224867
  -0.37687452  -0.37235471  -0.36755826  -0.36064389  -0.359071
  -0.34984214  -0.3436505   -0.33337149  -0.33196237  -0.31408151
  -0.30157369  -0.28428804  -0.27463951  -0.26742348  -0.26140701
  -0.25179483  -0.24634577  -0.23075331  -0.21171179  -0.20761495
  -0.18324539  -0.14805922  -0.10113868  -0.02161123   0.02118231
   0.0684689    0.09177644   0.10553839   0.14305568   0.16500922
   0.19153668   0.20717969   0.21884116   0.24541483   0.26371711
   0.27963289   0.30077825   0.30786071   0.31718008   0.32238848
   0.32880145   0.33388964   0.33903456   0.34468555   0.37131883
   0.37961869   0.40178869   0.42441824   0.43416007   0.45993576
   0.46313076   0.49449093   0.50392483   0.53081791   0.54569684
   0.55563404   0.57308196   0.59495038   0.60566085   0.63910656
   0.64847049   0.6660683    0.68205227   0.71346588   0.72548869
   0.73816403   0.77712196   0.78934909   0.80319716   0.85925463
   0.87809835   0.92976393   1.00557061   1.23748378]
nelec by numeric integration = 146.0000020967633
    CPU time for vxc     38.35 sec, wall time     15.91 sec
E1 = -4119.999193408599  Ecoul = 1904.8521220036228  Exc = -124.66503311541601
cycle= 12 E= -835.643882920551  delta_E= -4.87e-09  |g|= 2.2e-05  |ddm|= 0.000189
    CPU time for cycle= 12     38.81 sec, wall time     15.98 sec
  HOMO = -0.101136762713192  LUMO = -0.0216094966808136
  mo_energy =
[-10.03758972 -10.03513594 -10.03195998 -10.02879033 -10.0277238
 -10.02745941 -10.02299645 -10.02133624 -10.01965398 -10.01957379
 -10.0185818  -10.01721968 -10.01266382 -10.01226941 -10.01084897
 -10.01002793 -10.0099078  -10.00810035 -10.00737677 -10.0051708
 -10.00508448  -9.9962052   -0.86275442  -0.85142714  -0.84079323
  -0.80164696  -0.77028983  -0.7580482   -0.73592622  -0.71933692
  -0.69942474  -0.66816037  -0.64774438  -0.62656223  -0.60363124
  -0.57863627  -0.56133722  -0.54453     -0.53601353  -0.52518629
  -0.49718029  -0.48006933  -0.47592515  -0.46502076  -0.45206171
  -0.42372365  -0.41443839  -0.41115609  -0.39663619  -0.39224795
  -0.37687259  -0.37235327  -0.36755731  -0.36064252  -0.35907042
  -0.34984141  -0.34364951  -0.33336973  -0.33196099  -0.31408012
  -0.30157218  -0.28428679  -0.27463782  -0.26742198  -0.26140582
  -0.25179402  -0.24634443  -0.23075279  -0.21171086  -0.20761344
  -0.18324459  -0.14805757  -0.10113676  -0.0216095    0.02118393
   0.06846977   0.09177749   0.10553942   0.14305709   0.16501053
   0.19153783   0.2071806    0.21884239   0.24541622   0.26371722
   0.27963303   0.30077914   0.30786175   0.31718186   0.32238966
   0.32880247   0.33389168   0.33903657   0.34468685   0.37132127
   0.37961851   0.4017901    0.42442003   0.43416233   0.45993709
   0.46313083   0.49449288   0.50392507   0.53081921   0.54569772
   0.55563408   0.57308346   0.59495139   0.60566123   0.63910756
   0.64847024   0.66606912   0.68205324   0.71346873   0.72548753
   0.73816549   0.77712427   0.7893506    0.80319841   0.85925448
   0.87810038   0.92976463   1.00557379   1.23748293]
nelec by numeric integration = 146.000002096762
    CPU time for vxc     37.84 sec, wall time     15.75 sec
E1 = -4119.999021766693  Ecoul = 1904.851948610652  Exc = -124.66503136442422
cycle= 13 E= -835.643882920624  delta_E= -7.28e-11  |g|= 1.73e-05  |ddm|= 5.31e-05
    CPU time for cycle= 13     38.25 sec, wall time     15.82 sec
  HOMO = -0.101137913546123  LUMO = -0.0216106424659207
  mo_energy =
[-10.03758892 -10.03513794 -10.03196197 -10.02878939 -10.02772679
 -10.02746173 -10.02299825 -10.02133694 -10.01965461 -10.01957681
 -10.01858159 -10.01721894 -10.01266591 -10.01227228 -10.01085256
 -10.01002712 -10.00990556 -10.00810171 -10.00737832 -10.00517365
 -10.00508755  -9.99620306  -0.86275572  -0.85142766  -0.84079385
  -0.80164811  -0.77029045  -0.75804932  -0.73592683  -0.71933813
  -0.69942529  -0.66816142  -0.64774517  -0.62656315  -0.60363219
  -0.57863692  -0.56133817  -0.54453064  -0.53601437  -0.5251865
  -0.49718065  -0.48006961  -0.47592584  -0.46502123  -0.45206234
  -0.4237243   -0.4144392   -0.41115677  -0.39663694  -0.39224865
  -0.37687381  -0.37235419  -0.36755787  -0.36064338  -0.35907087
  -0.3498419   -0.3436502   -0.33337079  -0.33196176  -0.3140807
  -0.30157305  -0.28428735  -0.27463848  -0.26742278  -0.26140684
  -0.25179473  -0.24634545  -0.23075256  -0.21171177  -0.20761442
  -0.18324502  -0.14805857  -0.10113791  -0.02161064   0.02118285
   0.06846923   0.09177673   0.10553851   0.1430561    0.16500989
   0.19153742   0.20718021   0.21884208   0.24541562   0.26371705
   0.27963275   0.3007785    0.30786134   0.31718092   0.32238874
   0.32880173   0.33389105   0.33903549   0.34468605   0.37132003
   0.3796178    0.40178938   0.42441893   0.43416096   0.45993609
   0.46313055   0.49449156   0.50392433   0.53081823   0.54569697
   0.55563327   0.57308251   0.59495049   0.60566087   0.63910691
   0.64847035   0.66606828   0.68205249   0.71346728   0.72548766
   0.7381646    0.7771231    0.78934947   0.80319765   0.85925403
   0.87809905   0.92976345   1.0055718    1.23748366]
nelec by numeric integration = 146.00000209676242
    CPU time for vxc     38.49 sec, wall time     16.00 sec
E1 = -4119.999140415271  Ecoul = 1904.852068881029  Exc = -124.66503298632226
cycle= 14 E= -835.643882920723  delta_E= -9.87e-11  |g|= 4.17e-06  |ddm|= 2.79e-05
    CPU time for cycle= 14     39.07 sec, wall time     16.09 sec
  HOMO = -0.101138006742355  LUMO = -0.0216105221441126
  mo_energy =
[-10.03758993 -10.03513867 -10.031962   -10.02878992 -10.02772598
 -10.02746085 -10.0229977  -10.02133656 -10.01965507 -10.01957734
 -10.01858237 -10.01721941 -10.0126641  -10.01227295 -10.01085098
 -10.01002875 -10.00990539 -10.00810105 -10.00737957 -10.00517313
 -10.00508829  -9.99620576  -0.86275563  -0.85142799  -0.84079419
  -0.80164833  -0.77029076  -0.75804913  -0.73592665  -0.71933827
  -0.69942575  -0.6681613   -0.64774572  -0.62656275  -0.60363213
  -0.5786373   -0.56133819  -0.5445309   -0.53601411  -0.52518675
  -0.4971806   -0.48006994  -0.47592612  -0.46502139  -0.45206217
  -0.4237244   -0.41443936  -0.41115705  -0.39663712  -0.39224848
  -0.37687386  -0.37235408  -0.3675579   -0.36064338  -0.35907095
  -0.34984193  -0.34365033  -0.33337084  -0.33196186  -0.31408088
  -0.30157321  -0.2842875   -0.27463873  -0.26742303  -0.26140669
  -0.25179462  -0.24634519  -0.23075316  -0.21171156  -0.20761453
  -0.18324559  -0.14805852  -0.10113801  -0.02161052   0.0211829
   0.06846875   0.09177651   0.10553865   0.14305621   0.16500952
   0.191537     0.20718014   0.21884164   0.24541561   0.26371702
   0.2796328    0.30077849   0.30786122   0.31718105   0.32238881
   0.32880185   0.3338906    0.3390355    0.3446862    0.37132021
   0.37961831   0.40178922   0.42441872   0.43416097   0.45993601
   0.4631301    0.49449169   0.50392459   0.53081821   0.5456969
   0.55563374   0.57308225   0.59495045   0.60566047   0.63910668
   0.64846968   0.66606841   0.68205233   0.71346691   0.7254876
   0.73816422   0.7771226    0.7893493    0.80319724   0.85925401
   0.8780989    0.92976381   1.00557183   1.23748291]
nelec by numeric integration = 146.0000020967625
    CPU time for vxc     37.94 sec, wall time     15.80 sec
E1 = -4119.9991455129375  Ecoul = 1904.8520746144834  Exc = -124.66503362205974
Extra cycle  E= -835.643882920673  delta_E= 5e-11  |g|= 1.26e-05  |ddm|= 2.79e-05
    CPU time for scf_cycle    629.22 sec, wall time    257.49 sec
    CPU time for SCF    629.22 sec, wall time    257.49 sec
converged SCF energy = -835.643882920673
nelec by numeric integration = 146.0000020967625
    CPU time for vxc     37.79 sec, wall time     15.82 sec
 ** Mulliken pop  **
pop of  0 C 1s            1.99080
pop of  0 C 2s            1.11339
pop of  0 C 2px           0.99658
pop of  0 C 2py           0.98054
pop of  0 C 2pz           0.93112
pop of  1 C 1s            1.99071
pop of  1 C 2s            1.10257
pop of  1 C 2px           0.99968
pop of  1 C 2py           0.97858
pop of  1 C 2pz           0.94487
pop of  2 C 1s            1.99109
pop of  2 C 2s            1.17540
pop of  2 C 2px           1.00540
pop of  2 C 2py           0.94952
pop of  2 C 2pz           0.94653
pop of  3 C 1s            1.99127
pop of  3 C 2s            1.19356
pop of  3 C 2px           0.97158
pop of  3 C 2py           0.92979
pop of  3 C 2pz           0.93295
pop of  4 C 1s            1.99078
pop of  4 C 2s            1.07844
pop of  4 C 2px           0.98738
pop of  4 C 2py           0.99227
pop of  4 C 2pz           1.01015
pop of  5 C 1s            1.99110
pop of  5 C 2s            1.17744
pop of  5 C 2px           1.00312
pop of  5 C 2py           0.92424
pop of  5 C 2pz           0.97544
pop of  6 C 1s            1.99051
pop of  6 C 2s            1.08258
pop of  6 C 2px           1.03153
pop of  6 C 2py           1.05192
pop of  6 C 2pz           0.99225
pop of  7 C 1s            1.99146
pop of  7 C 2s            1.18167
pop of  7 C 2px           0.94895
pop of  7 C 2py           0.94195
pop of  7 C 2pz           0.94234
pop of  8 C 1s            1.99060
pop of  8 C 2s            1.07421
pop of  8 C 2px           1.01468
pop of  8 C 2py           0.96251
pop of  8 C 2pz           0.99225
pop of  9 C 1s            1.99103
pop of  9 C 2s            1.09466
pop of  9 C 2px           1.00041
pop of  9 C 2py           0.94840
pop of  9 C 2pz           0.98034
pop of  10 C 1s           1.99078
pop of  10 C 2s           1.09456
pop of  10 C 2px          1.03537
pop of  10 C 2py          0.95012
pop of  10 C 2pz          1.02187
pop of  11 C 1s           1.99152
pop of  11 C 2s           1.24386
pop of  11 C 2px          0.93891
pop of  11 C 2py          0.92176
pop of  11 C 2pz          0.93110
pop of  12 C 1s           1.99024
pop of  12 C 2s           1.05259
pop of  12 C 2px          1.02089
pop of  12 C 2py          1.00257
pop of  12 C 2pz          0.98027
pop of  13 C 1s           1.99084
pop of  13 C 2s           1.16095
pop of  13 C 2px          0.98898
pop of  13 C 2py          0.93630
pop of  13 C 2pz          0.91931
pop of  14 C 1s           1.99134
pop of  14 C 2s           1.19492
pop of  14 C 2px          0.98113
pop of  14 C 2py          0.91462
pop of  14 C 2pz          0.94922
pop of  15 C 1s           1.99108
pop of  15 C 2s           1.19418
pop of  15 C 2px          0.99442
pop of  15 C 2py          0.92124
pop of  15 C 2pz          0.94822
pop of  16 C 1s           1.99095
pop of  16 C 2s           1.17124
pop of  16 C 2px          0.98726
pop of  16 C 2py          0.90651
pop of  16 C 2pz          0.92668
pop of  17 C 1s           1.99032
pop of  17 C 2s           1.09782
pop of  17 C 2px          1.00097
pop of  17 C 2py          0.96802
pop of  17 C 2pz          0.97448
pop of  18 C 1s           1.99204
pop of  18 C 2s           1.07093
pop of  18 C 2px          0.98887
pop of  18 C 2py          1.02117
pop of  18 C 2pz          0.99179
pop of  19 C 1s           1.99085
pop of  19 C 2s           1.14796
pop of  19 C 2px          0.99247
pop of  19 C 2py          0.95724
pop of  19 C 2pz          0.97079
pop of  20 C 1s           1.99193
pop of  20 C 2s           1.04137
pop of  20 C 2px          1.02056
pop of  20 C 2py          1.09340
pop of  20 C 2pz          0.97813
pop of  21 C 1s           1.99106
pop of  21 C 2s           1.15990
pop of  21 C 2px          0.99966
pop of  21 C 2py          1.00896
pop of  21 C 2pz          0.94355
pop of  22 H 1s           0.93684
pop of  23 H 1s           0.95472
pop of  24 H 1s           0.93138
pop of  25 H 1s           0.89783
pop of  26 H 1s           0.87275
pop of  27 H 1s           0.97452
pop of  28 H 1s           0.89351
pop of  29 H 1s           0.93466
pop of  30 H 1s           0.94633
pop of  31 H 1s           0.93401
pop of  32 H 1s           0.94600
pop of  33 H 1s           0.93924
pop of  34 H 1s           0.88025
pop of  35 H 1s           0.89737
 ** Mulliken atomic charges  **
charge of    0C =     -0.01243
charge of    1C =     -0.01641
charge of    2C =     -0.06794
charge of    3C =     -0.01915
charge of    4C =     -0.05901
charge of    5C =     -0.07134
charge of    6C =     -0.14880
charge of    7C =     -0.00637
charge of    8C =     -0.03425
charge of    9C =     -0.01484
charge of   10C =     -0.09270
charge of   11C =     -0.02716
charge of   12C =     -0.04656
charge of   13C =      0.00362
charge of   14C =     -0.03123
charge of   15C =     -0.04913
charge of   16C =      0.01736
charge of   17C =     -0.03162
charge of   18C =     -0.06481
charge of   19C =     -0.05931
charge of   20C =     -0.12540
charge of   21C =     -0.10313
charge of   22H =      0.06316
charge of   23H =      0.04528
charge of   24H =      0.06862
charge of   25H =      0.10217
charge of   26H =      0.12725
charge of   27H =      0.02548
charge of   28H =      0.10649
charge of   29H =      0.06534
charge of   30H =      0.05367
charge of   31H =      0.06599
charge of   32H =      0.05400
charge of   33H =      0.06076
charge of   34H =      0.11975
charge of   35H =      0.10263
Dipole moment(X, Y, Z, Debye):  0.10405,  0.35019, -0.61881
nelec by numeric integration = 146.0000020967625
    CPU time for vxc     38.39 sec, wall time     15.86 sec
E1 = -4119.9991455129375  Ecoul = 1904.8520746144832  Exc = -124.66503362205972
nelec by numeric integration = 146.0000020967625
    CPU time for vxc     37.60 sec, wall time     15.71 sec
E1 = -4119.9991455129375  Ecoul = 1904.8520746144834  Exc = -124.66503362205972
