System: uname_result(system='Linux', node='cosmopc18', release='5.15.0-97-generic', version='#107-Ubuntu SMP Wed Feb 7 13:26:48 UTC 2024', machine='x86_64')  Threads 4
Python 3.11.8 (main, Feb 26 2024, 21:39:34) [GCC 11.2.0]
numpy 1.26.4  scipy 1.11.4
Date: Tue Apr  9 12:42:17 2024
PySCF version 2.3.0
PySCF path  /home/saade/miniconda3/envs/tutorial/lib/python3.11/site-packages/pyscf

[ENV] PYSCFAD_BACKEND torch
[CONFIG] conf_file None
[INPUT] verbose = 5
[INPUT] max_memory = 4000 
[INPUT] num. atoms = 36
[INPUT] num. electrons = 146
[INPUT] charge = 0
[INPUT] spin (= nelec alpha-beta = 2S) = 0
[INPUT] symmetry False subgroup None
[INPUT] Mole.unit = angstrom
[INPUT] Symbol           X                Y                Z      unit          X                Y                Z       unit  Magmom
[INPUT]  1 C      0.072731000000   3.977338000000   0.644588000000 AA    0.137441670766   7.516079524825   1.218094783181 Bohr   0.0
[INPUT]  2 C      0.060188000000   3.544034000000  -0.662387000000 AA    0.113738835985   6.697253636147  -1.251730018472 Bohr   0.0
[INPUT]  3 C      0.160222000000   4.902752000000   1.390584000000 AA    0.302775699130   9.264858536664   2.627822913202 Bohr   0.0
[INPUT]  4 C     -0.023374000000   2.398627000000   1.373043000000 AA   -0.044170458436   4.532748104987   2.594675227251 Bohr   0.0
[INPUT]  5 C      0.092934000000   5.151875000000  -1.553423000000 AA    0.175619807660   9.735632777994  -2.935544025600 Bohr   0.0
[INPUT]  6 C     -0.028936000000   2.478200000000  -1.485597000000 AA   -0.054681115140   4.683119281897  -2.807371461475 Bohr   0.0
[INPUT]  7 C     -0.026533000000   5.990822000000  -0.677502000000 AA   -0.050140103263  11.321012841019  -1.280293228845 Bohr   0.0
[INPUT]  8 C      0.079399000000   6.077069000000   0.654577000000 AA    0.150042364564  11.483996050084   1.236971257439 Bohr   0.0
[INPUT]  9 C     -0.167235000000   1.223496000000   0.677361000000 AA   -0.316028348442   2.312072354501   1.280026777462 Bohr   0.0
[INPUT] 10 C     -0.043315000000   1.197114000000  -0.673353000000 AA   -0.081853487086   2.262217599883  -1.272452755154 Bohr   0.0
[INPUT] 11 C     -0.128335000000  -0.008515000000   1.258332000000 AA   -0.242518002196  -0.016091017951   2.377902853776 Bohr   0.0
[INPUT] 12 C      0.006868000000   0.021126000000  -1.437861000000 AA    0.012978639024   0.039922354108  -2.717163495193 Bohr   0.0
[INPUT] 13 C     -0.125685000000  -1.191422000000   0.808994000000 AA   -0.237510227966  -2.251461278782   1.528777096416 Bohr   0.0
[INPUT] 14 C      0.137603000000  -1.338553000000  -0.644284000000 AA    0.260031983919  -2.529498573215  -1.217520306439 Bohr   0.0
[INPUT] 15 C     -0.032419000000  -2.437215000000   1.348066000000 AA   -0.061263031232  -4.605668856682   2.547475537838 Bohr   0.0
[INPUT] 16 C     -0.164706000000  -2.484620000000  -1.191942000000 AA   -0.311249231073  -4.695251323617  -2.252443936366 Bohr   0.0
[INPUT] 17 C      0.235239000000  -3.704288000000   0.632467000000 AA    0.444537283817  -7.000089806513   1.195189412825 Bohr   0.0
[INPUT] 18 C     -0.133821000000  -3.689636000000  -0.777775000000 AA   -0.252885039715  -6.972401539336  -1.469781736534 Bohr   0.0
[INPUT] 19 C     -0.221664000000  -5.008013000000   1.446597000000 AA   -0.418884251676  -9.463772998261   2.733672142617 Bohr   0.0
[INPUT] 20 C      0.056015000000  -4.861756000000  -1.506154000000 AA    0.105853008868  -9.187387324461  -2.846218561418 Bohr   0.0
[INPUT] 21 C      0.082160000000  -5.987715000000   0.679263000000 AA    0.155259898394 -11.315141461950   1.283621036550 Bohr   0.0
[INPUT] 22 C     -0.112442000000  -5.949891000000  -0.605739000000 AA   -0.212484584898 -11.243664461015  -1.144680812968 Bohr   0.0
[INPUT] 23 H     -0.058314000000   4.863841000000   2.365788000000 AA   -0.110197489228   9.191327403431   4.470691388783 Bohr   0.0
[INPUT] 24 H     -0.093103000000   2.518798000000   2.476638000000 AA   -0.175939171375   4.759838383102   4.680167529691 Bohr   0.0
[INPUT] 25 H      0.209605000000   4.956521000000  -2.337392000000 AA    0.396096044339   9.366467220655  -4.417030725749 Bohr   0.0
[INPUT] 26 H      0.126896000000   2.602657000000  -2.436353000000 AA    0.239798686303   4.918308926182  -4.604039912762 Bohr   0.0
[INPUT] 27 H     -0.042062000000   6.968709000000  -1.132415000000 AA   -0.079485660251  13.168951451792  -2.139954209349 Bohr   0.0
[INPUT] 28 H     -0.075484000000   7.216264000000   1.250535000000 AA   -0.142644086787  13.636762602558   2.363168659183 Bohr   0.0
[INPUT] 29 H      0.041667000000  -0.004503000000   2.564674000000 AA    0.078739218432  -0.008509436739   4.846531458793 Bohr   0.0
[INPUT] 30 H     -0.080951000000  -0.063823000000  -2.479269000000 AA   -0.152975219510  -0.120607990448  -4.685139399124 Bohr   0.0
[INPUT] 31 H      0.313110000000  -2.373320000000   2.376438000000 AA    0.591692146863  -4.484924805953   4.490816972009 Bohr   0.0
[INPUT] 32 H     -0.142283000000  -2.376524000000  -2.475807000000 AA   -0.268875902181  -4.490979488456  -4.678597167281 Bohr   0.0
[INPUT] 33 H      0.054525000000  -4.962641000000   2.395267000000 AA    0.103037316942  -9.378032344538   4.526398625209 Bohr   0.0
[INPUT] 34 H      0.009756000000  -4.921774000000  -2.572220000000 AA    0.018436168071  -9.300804907005  -4.860791332129 Bohr   0.0
[INPUT] 35 H      0.032673000000  -7.032485000000   1.333238000000 AA    0.061743021668 -13.289470625112   2.519454678863 Bohr   0.0
[INPUT] 36 H      0.086453000000  -6.950182000000  -1.437353000000 AA    0.163372492647 -13.133940495882  -2.716203514322 Bohr   0.0
[INPUT] ---------------- BASIS SET ---------------- 
[INPUT] l, kappa, [nprim/nctr], expnt,             c_1 c_2 ...
[INPUT] H
[INPUT] 0    0    [3    /1   ]  3.42525091        0.15432897
                                0.62391373        0.53532814
                                0.1688554         0.44463454
[INPUT] C
[INPUT] 0    0    [3    /1   ]  71.616837         0.15432897
                                13.045096         0.53532814
                                3.5305122         0.44463454
[INPUT] 0    0    [3    /1   ]  2.9412494         -0.09996723
                                0.6834831         0.39951283
                                0.2222899         0.70011547
[INPUT] 1    0    [3    /1   ]  2.9412494         0.15591627
                                0.6834831         0.60768372
                                0.2222899         0.39195739

nuclear repulsion = 1506.10836658131
number of shells = 80
number of NR pGTOs = 372
number of NR cGTOs = 124
basis = sto3g
ecp = {}
CPU time:     26441.40
atom C rad-grids = 99, ang-grids = [ 50  50  50  50  50  50  50  50  50  50  50  50  50  50  50  50  50  50
  50  50  50  50  50  50  50  50  50  50  50  50  50  86  86  86  86  86
  86  86  86  86  86  86  86 434 434 434 434 434 434 434 434 434 590 590
 590 590 590 590 590 590 590 590 590 590 590 590 590 590 590 590 590 590
 590 590 590 590 590 590 590 434 434 434 434 434 434 434 434 434 434 434
 434 434 434 434 434 434 434 434 434]
atom H rad-grids = 99, ang-grids = [ 50  50  50  50  50  50  50  50  50  50  50  50  50  50  50  50  50  50
  50  50  50  50  50  50  50  50  50  50  86  86  86  86  86  86  86 434
 434 434 434 434 434 434 434 590 590 590 590 590 590 590 590 590 590 590
 590 590 590 590 590 590 590 590 590 590 590 590 590 590 590 434 434 434
 434 434 434 434 434 434 434 434 434 434 434 434 434 434 434 434 434 434
 434 434 434 434 434 434 434 434 434]
tot_boxes 5270, boxes in each direction [ 8 29 15]
Padding 0 grids
tot grids = 1157832


******** <class 'pyscf.dft.rks.RKS'> ********
method = RKS
initial guess = minao
damping factor = 0
level_shift factor = 0
DIIS = <class 'pyscf.scf.diis.CDIIS'>
diis_start_cycle = 1
diis_space = 8
SCF conv_tol = 1e-10
SCF conv_tol_grad = None
SCF max_cycles = 50
direct_scf = True
direct_scf_tol = 1e-13
chkfile to save SCF result = /home/saade/mlelec/tutorials/tmpxiy629p0
max_memory 4000 MB (current use 637 MB)
XC library pyscf.dft.libxc version 6.1.0
    S. Lehtola, C. Steigemann, M. J.T. Oliveira, and M. A.L. Marques.,  SoftwareX 7, 1–5 (2018)
XC functionals = b3lypg
    P. J. Stephens, F. J. Devlin, C. F. Chabalowski, and M. J. Frisch.,  J. Phys. Chem. 98, 11623 (1994)
radial grids: 
    Treutler-Ahlrichs [JCP 102, 346 (1995); DOI:10.1063/1.469408] (M4) radial grids
    
becke partition: Becke, JCP 88, 2547 (1988); DOI:10.1063/1.454033
pruning grids: <function nwchem_prune at 0x7f9db5616ca0>
grids dens level: 3
symmetrized grids: False
atomic radii adjust function: <function treutler_atomic_radii_adjust at 0x7f9db5617380>
User specified grid scheme (99, 590)
small_rho_cutoff = 1e-07
Set gradient conv threshold to 1e-05
Initial guess from minao.
nelec by numeric integration = 145.27412532595542
    CPU time for vxc     36.95 sec, wall time     15.56 sec
E1 = -4112.027326404678  Ecoul = 1890.3174829953882  Exc = -126.22822238805962
init E= -841.829699216043
cond(S) = 22.09026336720964
    CPU time for initialize scf     46.94 sec, wall time     17.95 sec
  HOMO = -0.199456042782863  LUMO = -0.164551388930014
  mo_energy =
[-1.01382762e+01 -1.01338422e+01 -1.01275538e+01 -1.01267847e+01
 -1.01248987e+01 -1.01233881e+01 -1.01220674e+01 -1.01187963e+01
 -1.01162921e+01 -1.01103834e+01 -1.01075747e+01 -1.01063543e+01
 -1.01021795e+01 -1.01021360e+01 -1.00987062e+01 -1.00913802e+01
 -1.00906313e+01 -1.00902644e+01 -1.00869646e+01 -1.00841902e+01
 -1.00808139e+01 -1.00773851e+01 -1.10475259e+00 -1.08715277e+00
 -1.05707625e+00 -1.00750224e+00 -9.63473337e-01 -9.56080034e-01
 -9.14490041e-01 -8.98470557e-01 -8.67970361e-01 -8.44089077e-01
 -7.93633273e-01 -7.81686853e-01 -7.35167706e-01 -7.13131611e-01
 -6.98684503e-01 -6.88672051e-01 -6.67289174e-01 -6.46824517e-01
 -6.02104422e-01 -5.89922436e-01 -5.79523244e-01 -5.74237277e-01
 -5.44846052e-01 -5.29642674e-01 -5.25660921e-01 -5.05951605e-01
 -5.03281173e-01 -4.94170094e-01 -4.80858498e-01 -4.70476202e-01
 -4.59090422e-01 -4.51881437e-01 -4.51022594e-01 -4.33017485e-01
 -4.27411449e-01 -4.10157865e-01 -4.02088508e-01 -3.98178211e-01
 -3.87878251e-01 -3.82974728e-01 -3.72828191e-01 -3.55804143e-01
 -3.52287273e-01 -3.23894316e-01 -3.19440443e-01 -3.10090968e-01
 -2.81760120e-01 -2.76030954e-01 -2.50035162e-01 -2.48571442e-01
 -1.99456043e-01 -1.64551389e-01 -1.12163300e-01 -8.32356263e-02
 -6.45416646e-02 -3.93315686e-02  2.33256925e-03  2.52620961e-02
  4.45747018e-02  5.31583195e-02  8.17407318e-02  9.58032834e-02
  1.08956346e-01  1.14415819e-01  1.36061026e-01  1.41591254e-01
  1.68442555e-01  1.89571588e-01  2.11824800e-01  2.32111228e-01
  2.34434434e-01  2.50522099e-01  2.54797267e-01  2.81733079e-01
  2.98578098e-01  3.22444654e-01  3.45583847e-01  3.46560473e-01
  3.54396074e-01  3.70564089e-01  3.86507796e-01  4.06162809e-01
  4.10870790e-01  4.37566440e-01  4.51740581e-01  4.70182943e-01
  4.73628269e-01  5.05969748e-01  5.21461176e-01  5.28141837e-01
  5.65946801e-01  5.89203041e-01  6.28235570e-01  6.53209952e-01
  6.58278165e-01  6.76025502e-01  6.84855184e-01  6.87311847e-01
  7.52992230e-01  7.80635648e-01  8.75517037e-01  9.44916438e-01]
nelec by numeric integration = 145.99999748197885
    CPU time for vxc     37.81 sec, wall time     15.62 sec
E1 = -4126.688201684655  Ecoul = 1909.925798233699  Exc = -124.84647063613417
cycle= 1 E= -835.500507505783  delta_E= 6.33  |g|= 0.289  |ddm|= 9.35
    CPU time for cycle= 1     38.13 sec, wall time     15.68 sec
  HOMO = -0.0787598475340476  LUMO = -0.0187699770275582
  mo_energy =
[-10.08650091 -10.04942882 -10.02017073 -10.01603854 -10.01485364
 -10.01049175 -10.00497682 -10.00018118  -9.99837947  -9.99795267
  -9.98998263  -9.98867666  -9.9865385   -9.97177496  -9.97067116
  -9.96059891  -9.95567834  -9.94634286  -9.94200382  -9.93793678
  -9.92447111  -9.91854648  -0.8670754   -0.82388604  -0.81184252
  -0.77146943  -0.7560757   -0.73794141  -0.71326336  -0.69932862
  -0.67702256  -0.66028012  -0.6325531   -0.60973837  -0.60103474
  -0.57600011  -0.5520593   -0.54703984  -0.52393896  -0.51507117
  -0.49333885  -0.48066407  -0.45623191  -0.45133812  -0.42724231
  -0.42043176  -0.41917799  -0.4059287   -0.39683827  -0.38159841
  -0.37696052  -0.36857302  -0.3593484   -0.34865117  -0.33720731
  -0.32767816  -0.31506418  -0.30943834  -0.29316872  -0.29185397
  -0.27715628  -0.27205947  -0.26119058  -0.25342772  -0.23833394
  -0.21496008  -0.20627845  -0.19417717  -0.17255162  -0.15788676
  -0.15262006  -0.12996811  -0.07875985  -0.01876998   0.03701582
   0.07187038   0.09582245   0.1166139    0.16045963   0.18900432
   0.19353895   0.19775616   0.20716003   0.22480675   0.25777648
   0.27564283   0.28369703   0.29029293   0.3104412    0.34409939
   0.35718445   0.37471198   0.39763437   0.4041904    0.41546053
   0.43590895   0.44689871   0.45980042   0.48040588   0.4873828
   0.50757163   0.52939379   0.55194471   0.5547049    0.5675987
   0.59249376   0.6078229    0.61803343   0.62750765   0.65279728
   0.66665864   0.67651638   0.73891415   0.75159603   0.79057896
   0.80568175   0.81992364   0.82816283   0.83588861   0.86537232
   0.94741334   0.98708788   1.00709766   1.10701085]
nelec by numeric integration = 145.99999761561384
    CPU time for vxc     37.92 sec, wall time     15.73 sec
E1 = -4120.672258792654  Ecoul = 1903.8063572686888  Exc = -124.70569628161451
cycle= 2 E= -835.463231224273  delta_E= 0.0373  |g|= 0.417  |ddm|= 1.23
    CPU time for cycle= 2     38.74 sec, wall time     15.85 sec
  HOMO = -0.0964064061395674  LUMO = -0.0311232094611143
  mo_energy =
[-10.04317576 -10.04261802 -10.03052952 -10.02314623 -10.02077676
 -10.01917175 -10.01909226 -10.01897608 -10.01851504 -10.01671407
 -10.01200621 -10.01168602 -10.00687931 -10.00556724 -10.00378869
  -9.99523731  -9.9912121   -9.98154064  -9.97983851  -9.97936919
  -9.97934213  -9.96597837  -0.864935    -0.8434665   -0.83112031
  -0.80346506  -0.76751923  -0.74160851  -0.72950728  -0.71547211
  -0.70329163  -0.67605391  -0.64548416  -0.62720541  -0.59830251
  -0.58709928  -0.56847106  -0.56622875  -0.54213197  -0.52158657
  -0.4931136   -0.48241116  -0.47500996  -0.46195628  -0.44452224
  -0.44001276  -0.4336338   -0.41166635  -0.40337921  -0.40080778
  -0.3849682   -0.37365558  -0.36325954  -0.3588968   -0.35119183
  -0.34046987  -0.33305524  -0.31723708  -0.31515068  -0.30794102
  -0.29893274  -0.2920842   -0.27911359  -0.26820838  -0.24360036
  -0.23548312  -0.22713334  -0.21921819  -0.18995098  -0.18428206
  -0.15209952  -0.14738861  -0.09640641  -0.03112321   0.02144488
   0.04872572   0.07555138   0.10478674   0.14681481   0.16691905
   0.19345478   0.20393515   0.21659525   0.22210453   0.23674922
   0.24740049   0.27091926   0.2902483    0.30907668   0.32909879
   0.33641182   0.35943531   0.37797342   0.38341797   0.40438934
   0.4116143    0.44157846   0.45934169   0.46270704   0.48791799
   0.49255438   0.51098602   0.5227513    0.53604682   0.5563298
   0.57324005   0.58172296   0.60520289   0.62701008   0.63606852
   0.6637782    0.67554399   0.70165212   0.73049014   0.76949739
   0.79421614   0.80981209   0.81032521   0.81967943   0.83932195
   0.90003244   0.91884704   1.0334364    1.11270797]
nelec by numeric integration = 145.99999751338814
    CPU time for vxc     38.06 sec, wall time     15.70 sec
E1 = -4123.83752164609  Ecoul = 1906.9687698584369  Exc = -124.73482202934287
cycle= 3 E= -835.495207235689  delta_E= -0.032  |g|= 0.302  |ddm|= 1.35
    CPU time for cycle= 3     38.45 sec, wall time     15.76 sec
  HOMO = -0.0980655004205367  LUMO = -0.0368877882666295
  mo_energy =
[-10.03599699 -10.02944912 -10.02771781 -10.02544844 -10.02322407
 -10.0218231  -10.02148843 -10.02038095 -10.01793123 -10.01771467
 -10.01475905 -10.01457051 -10.01396683 -10.01360502 -10.01212641
 -10.01143649 -10.00881525 -10.00872901 -10.00630196 -10.00016886
  -9.99875223  -9.97846579  -0.86210866  -0.85661064  -0.83393995
  -0.80187773  -0.76749955  -0.76516935  -0.73335034  -0.71879403
  -0.70028759  -0.68086023  -0.64623302  -0.63733359  -0.6097056
  -0.58812731  -0.56804541  -0.56588587  -0.54615501  -0.53078193
  -0.49972787  -0.48953844  -0.47610231  -0.47137643  -0.44388418
  -0.43587381  -0.43482586  -0.41738868  -0.40907301  -0.40197842
  -0.38789079  -0.37541333  -0.36523506  -0.36174665  -0.35777834
  -0.33963712  -0.33638297  -0.32812919  -0.31799059  -0.30601788
  -0.29688057  -0.29230006  -0.2838174   -0.26891278  -0.25864544
  -0.23827591  -0.22766865  -0.22113782  -0.19297005  -0.1822693
  -0.16369206  -0.15427161  -0.0980655   -0.03688779   0.01999567
   0.05100252   0.07072852   0.0995745    0.14262918   0.16353995
   0.18262084   0.19045742   0.21240725   0.2201939    0.24123568
   0.24679202   0.27154323   0.2791876    0.30390919   0.32143853
   0.34187019   0.36335472   0.37953845   0.38765029   0.39260205
   0.41638664   0.43908871   0.45939472   0.46939713   0.47139377
   0.48536521   0.51353007   0.52417786   0.53910594   0.54208101
   0.58155855   0.58973018   0.60047849   0.60455708   0.64114664
   0.65084258   0.66439027   0.70798192   0.72613445   0.77041465
   0.78317758   0.79752441   0.81184678   0.81544282   0.82808406
   0.89719775   0.92933775   1.01358836   1.07971013]
nelec by numeric integration = 145.999997525708
    CPU time for vxc     37.94 sec, wall time     15.64 sec
E1 = -4123.236194751438  Ecoul = 1906.343143883583  Exc = -124.74554667652006
cycle= 4 E= -835.530230963069  delta_E= -0.035  |g|= 0.123  |ddm|= 0.817
    CPU time for cycle= 4     38.39 sec, wall time     15.71 sec
  HOMO = -0.101103562228076  LUMO = -0.0401808152593885
  mo_energy =
[-10.04307681 -10.03994523 -10.03813368 -10.03160572 -10.02835195
 -10.02763871 -10.02179258 -10.02120307 -10.01925006 -10.01847917
 -10.01780835 -10.01755135 -10.01668746 -10.01266786 -10.01120253
 -10.00930041 -10.00861411 -10.00830483 -10.00722687 -10.00609102
  -9.99982801  -9.99612285  -0.86568584  -0.85829046  -0.83772081
  -0.80409324  -0.76806242  -0.76507474  -0.73550641  -0.72072594
  -0.70381804  -0.68229501  -0.64593748  -0.64040541  -0.61114513
  -0.59199186  -0.5695495   -0.56873022  -0.54582178  -0.53192492
  -0.50187795  -0.49045905  -0.4777098   -0.47318238  -0.44552624
  -0.43800175  -0.43725239  -0.4197793   -0.41012608  -0.40352733
  -0.38965655  -0.37943482  -0.36975226  -0.36362016  -0.35976043
  -0.34027217  -0.33828547  -0.33060195  -0.31932952  -0.30866699
  -0.30005876  -0.29684173  -0.28641722  -0.2696253   -0.25976926
  -0.23965628  -0.22905047  -0.22359617  -0.1948069   -0.18549224
  -0.16662169  -0.15709557  -0.10110356  -0.04018082   0.01663917
   0.0485645    0.06907583   0.09455212   0.14101521   0.16218653
   0.17982734   0.18866803   0.2079113    0.2189578    0.23874208
   0.24589577   0.27046899   0.27640741   0.30073831   0.31741879
   0.34044417   0.35914371   0.37969127   0.38419059   0.3895571
   0.41497262   0.43456861   0.45732604   0.46824873   0.47048312
   0.48376981   0.5140408    0.52262685   0.53706568   0.54034334
   0.57712352   0.58694246   0.59964601   0.60346053   0.63781878
   0.64952068   0.65955348   0.70577373   0.72352715   0.76918368
   0.78541567   0.79527628   0.8085405    0.81190777   0.82512838
   0.89805897   0.92846839   1.00646432   1.0852707 ]
nelec by numeric integration = 145.99999752461613
    CPU time for vxc     38.22 sec, wall time     15.78 sec
E1 = -4123.726311572218  Ecoul = 1906.8309703808372  Exc = -124.74887702731633
cycle= 5 E= -835.53585163739  delta_E= -0.00562  |g|= 0.03  |ddm|= 0.228
    CPU time for cycle= 5     38.78 sec, wall time     15.88 sec
  HOMO = -0.100392687974816  LUMO = -0.0386042493933679
  mo_energy =
[-10.03857907 -10.03763406 -10.03397847 -10.03048349 -10.02965577
 -10.02543146 -10.01893002 -10.01880906 -10.01828543 -10.01813464
 -10.01751678 -10.01677528 -10.01285463 -10.01202413 -10.00872527
 -10.00675831 -10.00609467 -10.00486482 -10.00424696 -10.00168935
 -10.0006472  -10.00034759  -0.86347853  -0.85681763  -0.83630778
  -0.80281299  -0.76672819  -0.7635122   -0.73416726  -0.71884367
  -0.70281528  -0.68099972  -0.64465341  -0.63972162  -0.60913097
  -0.59036256  -0.56791818  -0.56759435  -0.54488168  -0.53123194
  -0.5003541   -0.48959009  -0.47663857  -0.47249617  -0.44456099
  -0.43708138  -0.43590216  -0.41752558  -0.40908322  -0.40261699
  -0.38868742  -0.37808007  -0.3680109   -0.36268909  -0.35862363
  -0.33991228  -0.33759185  -0.33017627  -0.31827304  -0.30806911
  -0.29865823  -0.29539406  -0.28549057  -0.26875787  -0.25811705
  -0.23912075  -0.22778483  -0.22299963  -0.19348594  -0.18501845
  -0.16451484  -0.15584498  -0.10039269  -0.03860425   0.01798269
   0.04896291   0.07052278   0.0967763    0.14219558   0.16350362
   0.18191334   0.19018039   0.20937206   0.21902682   0.23908757
   0.24724434   0.27157769   0.27814494   0.30167349   0.31872495
   0.34036117   0.36110424   0.38072517   0.38502514   0.39188751
   0.4153701    0.43706257   0.45873225   0.46779974   0.47110057
   0.48581013   0.51473545   0.52379325   0.53747538   0.54125898
   0.57850359   0.58698872   0.60142319   0.60426672   0.6387919
   0.65152512   0.66204882   0.70624477   0.72513715   0.77117997
   0.78611731   0.79597882   0.80961252   0.81361371   0.82707987
   0.90110521   0.92869985   1.01000452   1.08592373]
nelec by numeric integration = 145.99999752521276
    CPU time for vxc     37.94 sec, wall time     15.72 sec
E1 = -4123.530681644486  Ecoul = 1906.6321120872258  Exc = -124.74586986787773
cycle= 6 E= -835.536072843832  delta_E= -0.000221  |g|= 0.0172  |ddm|= 0.069
    CPU time for cycle= 6     38.49 sec, wall time     15.80 sec
  HOMO = -0.10023347777353  LUMO = -0.038008735822744
  mo_energy =
[-10.03822243 -10.03771444 -10.03282298 -10.03007555 -10.02631759
 -10.02482245 -10.02001257 -10.01825316 -10.01785008 -10.01749878
 -10.01596293 -10.01585214 -10.01326681 -10.01287158 -10.00754896
 -10.0067385  -10.0067016  -10.00540096 -10.00498648 -10.00379535
  -9.99944085  -9.99847958  -0.86297532  -0.85644294  -0.83613826
  -0.80270669  -0.76680153  -0.76255585  -0.73398907  -0.71924301
  -0.7026294   -0.68085261  -0.64429624  -0.639275    -0.60884572
  -0.59035519  -0.56804523  -0.56762549  -0.54459847  -0.53087704
  -0.49997669  -0.48881777  -0.47675842  -0.47201891  -0.44459263
  -0.43684328  -0.43627305  -0.41767892  -0.40909821  -0.40248453
  -0.38811773  -0.37794784  -0.36774286  -0.36236842  -0.35851207
  -0.33964081  -0.33758594  -0.32935414  -0.31840845  -0.30782254
  -0.29849286  -0.29533912  -0.28544927  -0.26879347  -0.25745425
  -0.23916167  -0.22790507  -0.2228779   -0.19363763  -0.18469029
  -0.16418654  -0.1558093   -0.10023348  -0.03800874   0.01818217
   0.04939263   0.0703834    0.09686487   0.14247677   0.16359216
   0.18231053   0.19074255   0.21002678   0.2190496    0.23930197
   0.24667582   0.27111895   0.27867468   0.30216494   0.31909799
   0.34062974   0.36078238   0.38029202   0.38530371   0.39190118
   0.41551671   0.43688191   0.4584288    0.46820619   0.47238996
   0.48510555   0.51456505   0.52375951   0.53827582   0.54172909
   0.57863275   0.58761722   0.60105418   0.60540681   0.63887733
   0.65178417   0.66201705   0.70648587   0.72511729   0.77076682
   0.78740796   0.79657462   0.81011536   0.81403857   0.82689319
   0.89988017   0.9288315    1.01073195   1.08700925]
nelec by numeric integration = 145.9999975261314
    CPU time for vxc     37.68 sec, wall time     15.59 sec
E1 = -4123.54961756877  Ecoul = 1906.6498111144313  Exc = -124.74474226092043
cycle= 7 E= -835.536182133953  delta_E= -0.000109  |g|= 0.00416  |ddm|= 0.0339
    CPU time for cycle= 7     38.31 sec, wall time     15.68 sec
  HOMO = -0.100212427828771  LUMO = -0.0379142754761245
  mo_energy =
[-10.03881932 -10.03737298 -10.03305732 -10.02954821 -10.02675471
 -10.02512559 -10.01995461 -10.01815936 -10.01749301 -10.01707769
 -10.01653465 -10.01600329 -10.01360546 -10.01201166 -10.0070636
 -10.00694478 -10.00578272 -10.00531984 -10.00471807 -10.00417801
  -9.99936163  -9.99857899  -0.86303257  -0.85652249  -0.83603437
  -0.80267052  -0.76674184  -0.76276787  -0.73390595  -0.71897707
  -0.70253664  -0.68079006  -0.6442782   -0.63926181  -0.60893592
  -0.59030014  -0.56790205  -0.56750921  -0.54458353  -0.5308383
  -0.50004848  -0.4889232   -0.4766699   -0.47201422  -0.4444698
  -0.43674849  -0.4361083   -0.41760292  -0.40907016  -0.4024424
  -0.38816969  -0.3778449   -0.36771321  -0.3623147   -0.35846943
  -0.33958717  -0.33758421  -0.32952107  -0.31821116  -0.30775899
  -0.29851641  -0.29529937  -0.2853379   -0.26874271  -0.25757622
  -0.23910161  -0.22777237  -0.22276568  -0.19347539  -0.18461766
  -0.16423892  -0.15572044  -0.10021243  -0.03791428   0.01826512
   0.04946585   0.07055527   0.09695124   0.14256079   0.16355136
   0.18226252   0.19065879   0.20986583   0.21901488   0.23938124
   0.24681039   0.27126073   0.27854135   0.30212521   0.31910661
   0.34059457   0.36098871   0.38066172   0.38532923   0.39193145
   0.41565515   0.43697538   0.45865007   0.46831891   0.47211899
   0.48541655   0.51482137   0.52389781   0.53824312   0.54170769
   0.5787818    0.5876112    0.60124615   0.60520916   0.63903934
   0.65178614   0.66215714   0.70671674   0.72532319   0.77085146
   0.78719237   0.79643301   0.80997727   0.81399197   0.82703657
   0.89995284   0.92897704   1.01039092   1.08685823]
nelec by numeric integration = 145.99999752567928
    CPU time for vxc     38.04 sec, wall time     15.74 sec
E1 = -4123.541269651276  Ecoul = 1906.6415383907024  Exc = -124.74482372437238
cycle= 8 E= -835.536188403639  delta_E= -6.27e-06  |g|= 0.00118  |ddm|= 0.00799
    CPU time for cycle= 8     38.48 sec, wall time     15.81 sec
  HOMO = -0.100305147391622  LUMO = -0.0379330465963483
  mo_energy =
[-10.03868085 -10.03750354 -10.03307612 -10.02973123 -10.02686322
 -10.02507762 -10.01983114 -10.01823967 -10.01753747 -10.01720944
 -10.01676757 -10.01584629 -10.01348973 -10.01206486 -10.007107
 -10.00687634 -10.0060284  -10.0052562  -10.004916   -10.00407369
  -9.99952195  -9.9987291   -0.86307583  -0.8565341   -0.83606433
  -0.80267664  -0.7667506   -0.76285548  -0.7339406   -0.71905359
  -0.70254355  -0.6808257   -0.64435526  -0.63928664  -0.60895899
  -0.59031207  -0.56795271  -0.56753585  -0.54463092  -0.53087986
  -0.50008507  -0.48897337  -0.47667723  -0.47204662  -0.44449733
  -0.43676038  -0.43616104  -0.41766614  -0.40906403  -0.40245563
  -0.38820268  -0.37790262  -0.36775709  -0.36235787  -0.35849458
  -0.33960161  -0.33756273  -0.32955374  -0.31825065  -0.3077642
  -0.29849807  -0.29530621  -0.28535266  -0.26874115  -0.25764444
  -0.23907286  -0.22779382  -0.2227752   -0.19351567  -0.18459669
  -0.16429245  -0.15575822  -0.10030515  -0.03793305   0.01824798
   0.04946952   0.07052442   0.09689348   0.14248319   0.1635653
   0.18222972   0.19061791   0.20983837   0.21907766   0.239384
   0.24684151   0.27127997   0.27852661   0.30209226   0.31907232
   0.34064808   0.36092098   0.38060543   0.38535311   0.39190429
   0.41564939   0.43693407   0.45859885   0.46830937   0.47204817
   0.48532743   0.51476372   0.52386393   0.53822213   0.54165834
   0.57873376   0.58761312   0.6012129    0.60512891   0.63902497
   0.65171518   0.66207198   0.70662529   0.72522171   0.77084904
   0.78708086   0.79649993   0.81003828   0.81396211   0.8269883
   0.89999875   0.92892555   1.01040607   1.08672159]
nelec by numeric integration = 145.9999975256186
    CPU time for vxc     37.63 sec, wall time     15.66 sec
E1 = -4123.543893169207  Ecoul = 1906.6442352567697  Exc = -124.74489759884136
cycle= 9 E= -835.536188929972  delta_E= -5.26e-07  |g|= 0.000502  |ddm|= 0.00279
    CPU time for cycle= 9     38.14 sec, wall time     15.74 sec
  HOMO = -0.100311541597406  LUMO = -0.037925172322281
  mo_energy =
[-10.03870322 -10.03749478 -10.03311081 -10.02971973 -10.02680235
 -10.02511211 -10.01990463 -10.01822241 -10.01752206 -10.0172439
 -10.01668221 -10.01595406 -10.01355723 -10.01215812 -10.00713399
 -10.00699251 -10.00599919 -10.00536124 -10.00487344 -10.00405109
  -9.99950819  -9.99868287  -0.86307977  -0.85655169  -0.83608712
  -0.80270541  -0.76676825  -0.76283742  -0.73395878  -0.71905817
  -0.70257214  -0.68083837  -0.6443508   -0.63929659  -0.60897198
  -0.59033545  -0.56795635  -0.56755382  -0.54463068  -0.5308837
  -0.50008974  -0.48896903  -0.47669565  -0.47205123  -0.44450739
  -0.43678548  -0.43616885  -0.41767389  -0.40908734  -0.40247723
  -0.38820748  -0.37789912  -0.36775984  -0.36236616  -0.35850537
  -0.33960106  -0.33757581  -0.32953408  -0.31826653  -0.30777908
  -0.29852126  -0.29531147  -0.28537168  -0.26875473  -0.2576316
  -0.23910611  -0.22780721  -0.22279915  -0.19352771  -0.18463809
  -0.1642904   -0.1557695   -0.10031154  -0.03792517   0.01822836
   0.0494337    0.07049884   0.09688595   0.14248688   0.16354248
   0.18222234   0.19061481   0.2098539    0.21904954   0.23937894
   0.24682659   0.2712766    0.27852134   0.30210141   0.31907641
   0.34061413   0.36091935   0.38059174   0.38531294   0.39188914
   0.41561403   0.43692335   0.45858793   0.46828874   0.47208238
   0.48532779   0.51474444   0.52384694   0.53821008   0.54165591
   0.57872168   0.58758564   0.60119214   0.60515393   0.63899173
   0.651709     0.66206692   0.706626     0.72522278   0.77081833
   0.78710644   0.79644536   0.80998839   0.81394928   0.82697359
   0.89997251   0.92892724   1.01039132   1.08674625]
nelec by numeric integration = 145.99999752562258
    CPU time for vxc     38.08 sec, wall time     15.85 sec
E1 = -4123.545658009221  Ecoul = 1906.646024535763  Exc = -124.7449221380557
cycle= 10 E= -835.536189030207  delta_E= -1e-07  |g|= 0.000136  |ddm|= 0.00104
    CPU time for cycle= 10     38.60 sec, wall time     15.93 sec
  HOMO = -0.100316796954536  LUMO = -0.0379292974705402
  mo_energy =
[-10.03871297 -10.03750606 -10.03311088 -10.02971343 -10.02681976
 -10.02509742 -10.01991347 -10.01824159 -10.01755512 -10.01726329
 -10.0166555  -10.01594386 -10.01355711 -10.01216391 -10.0071165
 -10.00698013 -10.00600871 -10.00531741 -10.00488529 -10.00408005
  -9.99951011  -9.9986956   -0.86308298  -0.85655382  -0.8360892
  -0.80270558  -0.76677401  -0.76283211  -0.73396019  -0.71906368
  -0.70257422  -0.68083906  -0.64434965  -0.63930222  -0.60896913
  -0.59033576  -0.56796038  -0.5675543   -0.54463206  -0.53088705
  -0.50008849  -0.48896724  -0.47670011  -0.47205284  -0.44451119
  -0.43678744  -0.4361714   -0.41766919  -0.40908717  -0.40247499
  -0.38820693  -0.37790549  -0.36776254  -0.36236635  -0.35850928
  -0.33960934  -0.33757976  -0.32953232  -0.31826841  -0.30778188
  -0.29852158  -0.29531859  -0.28537323  -0.26875996  -0.25762847
  -0.23910511  -0.22781231  -0.22280372  -0.19353078  -0.18463442
  -0.16428936  -0.15577227  -0.1003168   -0.0379293    0.01822463
   0.0494375    0.07049764   0.096884     0.14248327   0.16354019
   0.18222252   0.19061587   0.2098534    0.21905095   0.23936902
   0.24681405   0.271262     0.27852006   0.30209738   0.31906958
   0.34061892   0.36091731   0.38058537   0.38531777   0.39189135
   0.41561489   0.43692346   0.45858598   0.46828583   0.47208878
   0.48532521   0.51474058   0.5238407    0.53821083   0.54165564
   0.57871543   0.58758717   0.60118825   0.60515769   0.63898959
   0.65171413   0.66206746   0.70661898   0.72522236   0.77081231
   0.78711267   0.79645083   0.80999425   0.81394803   0.82696811
   0.89996077   0.92890899   1.01038838   1.08675478]
nelec by numeric integration = 145.9999975256001
    CPU time for vxc     37.71 sec, wall time     15.60 sec
E1 = -4123.545951251268  Ecoul = 1906.6463168175899  Exc = -124.74492118491126
cycle= 11 E= -835.536189037282  delta_E= -7.07e-09  |g|= 9.93e-05  |ddm|= 0.000461
    CPU time for cycle= 11     38.18 sec, wall time     15.68 sec
  HOMO = -0.100314490122251  LUMO = -0.0379248962287396
  mo_energy =
[-10.03870271 -10.03750052 -10.03310036 -10.02971907 -10.02681513
 -10.02510487 -10.01990139 -10.01823121 -10.01753862 -10.01724475
 -10.0166646  -10.01594353 -10.01354715 -10.01214845 -10.00712252
 -10.00698004 -10.00600751 -10.00533572 -10.00488301 -10.00406872
  -9.99950693  -9.99869158  -0.86307812  -0.85654907  -0.83608628
  -0.80270345  -0.76676923  -0.76283108  -0.73395665  -0.71906044
  -0.70257085  -0.68083709  -0.64434843  -0.6392985   -0.60896573
  -0.59033324  -0.56795717  -0.56755243  -0.54462927  -0.53088357
  -0.5000854   -0.48896552  -0.47669657  -0.47205044  -0.44450845
  -0.43678376  -0.43616929  -0.41766823  -0.40908524  -0.40247384
  -0.38820472  -0.37790181  -0.36775932  -0.36236422  -0.35850542
  -0.33960613  -0.3375779   -0.32953201  -0.31826614  -0.30778039
  -0.29851989  -0.29531515  -0.28537114  -0.26875647  -0.25762668
  -0.23910376  -0.22780843  -0.2227995   -0.19352777  -0.1846338
  -0.16428648  -0.15576896  -0.10031449  -0.0379249    0.01822829
   0.0494375    0.070501     0.09688684   0.14248598   0.16354309
   0.1822255    0.19061824   0.20985531   0.21904995   0.23937214
   0.24681872   0.27126665   0.27852404   0.30210031   0.31907379
   0.3406171    0.36091797   0.38059049   0.3853174    0.39189371
   0.41561688   0.43692579   0.45858744   0.46828871   0.4720879
   0.48532656   0.5147455    0.52384576   0.53821249   0.54165819
   0.57871953   0.58758783   0.60119285   0.60515821   0.63899397
   0.65171578   0.66206937   0.70662266   0.72522393   0.7708182
   0.78711273   0.79645132   0.80999379   0.81395152   0.82697296
   0.89996938   0.92891843   1.01039553   1.08675473]
nelec by numeric integration = 145.9999975256233
    CPU time for vxc     37.70 sec, wall time     15.61 sec
E1 = -4123.545531163006  Ecoul = 1906.6458900958648  Exc = -124.74491455519272
cycle= 12 E= -835.536189041027  delta_E= -3.74e-09  |g|= 1.97e-05  |ddm|= 0.000179
    CPU time for cycle= 12     38.14 sec, wall time     15.68 sec
  HOMO = -0.1003143078247  LUMO = -0.0379241439208083
  mo_energy =
[-10.03870484 -10.03749943 -10.03310276 -10.02971915 -10.02681357
 -10.02510212 -10.01990151 -10.01823211 -10.01753904 -10.01724629
 -10.01667164 -10.01594023 -10.01355109 -10.01215295 -10.00712115
 -10.00697589 -10.00600221 -10.00533382 -10.00488059 -10.00406716
  -9.99950669  -9.99869213  -0.86307901  -0.85654971  -0.83608559
  -0.80270282  -0.76676894  -0.76283318  -0.73395681  -0.71905988
  -0.70257017  -0.68083719  -0.64434887  -0.6392981   -0.60896651
  -0.5903327   -0.56795684  -0.56755182  -0.54462968  -0.53088376
  -0.50008643  -0.48896635  -0.47669631  -0.47205055  -0.44450779
  -0.43678338  -0.43616867  -0.41766866  -0.40908481  -0.40247361
  -0.38820512  -0.3779017   -0.36775941  -0.36236438  -0.3585054
  -0.33960564  -0.33757722  -0.32953322  -0.31826576  -0.3077796
  -0.29851925  -0.29531456  -0.28537062  -0.26875628  -0.25762809
  -0.23910306  -0.2278083   -0.22279903  -0.19352722  -0.18463294
  -0.16428743  -0.15576852  -0.10031431  -0.03792414   0.01822882
   0.0494382    0.07050111   0.09688675   0.14248562   0.16354338
   0.18222492   0.1906174    0.20985404   0.21905082   0.23937306
   0.2468198    0.27126791   0.27852296   0.30209973   0.31907358
   0.34061815   0.36091885   0.3805911    0.3853185    0.39189333
   0.41561726   0.43692578   0.45858827   0.46828931   0.47208556
   0.4853276    0.5147452    0.52384582   0.53821248   0.54165776
   0.57872021   0.58758902   0.60119316   0.60515664   0.63899437
   0.65171479   0.66206925   0.70662303   0.72522404   0.77081817
   0.78711091   0.79645324   0.80999514   0.81395104   0.82697293
   0.89996986   0.92891821   1.01039356   1.08675276]
nelec by numeric integration = 145.99999752562076
    CPU time for vxc     37.82 sec, wall time     15.64 sec
E1 = -4123.5455845192855  Ecoul = 1906.6459436134228  Exc = -124.74491471661125
cycle= 13 E= -835.536189041167  delta_E= -1.41e-10  |g|= 1.44e-05  |ddm|= 5.76e-05
    CPU time for cycle= 13     38.19 sec, wall time     15.71 sec
  HOMO = -0.100314554793724  LUMO = -0.0379242606875761
  mo_energy =
[-10.03870359 -10.03749904 -10.03310218 -10.02971813 -10.02681384
 -10.0251025  -10.01990184 -10.01823196 -10.01753879 -10.01724533
 -10.01666974 -10.01594162 -10.01354928 -10.0121521  -10.00712295
 -10.00697853 -10.00600556 -10.00533257 -10.00487906 -10.00406851
  -9.99950999  -9.99869175  -0.86307869  -0.85654957  -0.83608566
  -0.80270305  -0.76676906  -0.76283331  -0.73395675  -0.71906019
  -0.70257019  -0.68083718  -0.64434925  -0.6392981   -0.60896664
  -0.59033275  -0.56795698  -0.56755189  -0.54462989  -0.53088386
  -0.50008627  -0.48896652  -0.47669631  -0.4720506   -0.44450794
  -0.4367834   -0.43616889  -0.41766872  -0.40908505  -0.40247373
  -0.38820519  -0.37790152  -0.36775922  -0.36236433  -0.35850541
  -0.3396055   -0.3375773   -0.329533    -0.3182659   -0.30777951
  -0.29851939  -0.29531432  -0.28537064  -0.26875629  -0.25762808
  -0.23910327  -0.22780822  -0.22279903  -0.19352746  -0.18463287
  -0.16428748  -0.15576854  -0.10031455  -0.03792426   0.01822858
   0.04943823   0.07050093   0.09688688   0.14248562   0.16354311
   0.18222487   0.19061736   0.20985442   0.21905067   0.2393732
   0.24681976   0.27126787   0.27852321   0.30209996   0.31907388
   0.34061801   0.36091883   0.38059088   0.38531833   0.39189354
   0.41561751   0.43692603   0.45858813   0.46828952   0.47208591
   0.48532712   0.51474516   0.52384574   0.53821258   0.54165776
   0.57872027   0.5875887    0.60119281   0.60515667   0.63899454
   0.65171463   0.66206935   0.70662307   0.72522401   0.77081802
   0.78711049   0.79645232   0.80999463   0.81395119   0.82697294
   0.89996955   0.92891839   1.01039433   1.08675173]
nelec by numeric integration = 145.9999975256188
    CPU time for vxc     37.94 sec, wall time     15.71 sec
E1 = -4123.5455358137315  Ecoul = 1906.645895530046  Exc = -124.74491533879821
cycle= 14 E= -835.536189041177  delta_E= -9.55e-12  |g|= 1.18e-05  |ddm|= 3.28e-05
    CPU time for cycle= 14     38.39 sec, wall time     15.78 sec
  HOMO = -0.10031487361699  LUMO = -0.0379245170220347
  mo_energy =
[-10.03870438 -10.0375     -10.03310313 -10.02971877 -10.026814
 -10.02510325 -10.01990215 -10.0182318  -10.01753903 -10.0172461
 -10.01667015 -10.01594181 -10.01355034 -10.0121515  -10.00712244
 -10.00697814 -10.00600558 -10.00533346 -10.00488201 -10.00406897
  -9.9995087   -9.99869135  -0.86307912  -0.85654987  -0.83608607
  -0.80270335  -0.76676924  -0.76283337  -0.73395705  -0.71906043
  -0.70257055  -0.68083742  -0.64434933  -0.63929839  -0.60896688
  -0.59033318  -0.56795728  -0.56755214  -0.54462994  -0.53088399
  -0.50008657  -0.48896663  -0.47669653  -0.47205076  -0.44450812
  -0.43678357  -0.43616926  -0.41766909  -0.40908523  -0.40247395
  -0.38820537  -0.37790191  -0.36775966  -0.36236456  -0.35850564
  -0.33960561  -0.33757745  -0.32953319  -0.31826605  -0.30777975
  -0.29851969  -0.29531472  -0.28537088  -0.26875641  -0.25762823
  -0.2391034   -0.22780837  -0.22279927  -0.19352764  -0.18463319
  -0.16428778  -0.15576884  -0.10031487  -0.03792452   0.01822825
   0.04943796   0.07050071   0.09688635   0.14248543   0.16354291
   0.18222453   0.19061712   0.20985404   0.21905059   0.23937304
   0.24681962   0.2712678    0.27852291   0.30209967   0.31907353
   0.34061788   0.36091834   0.38059088   0.38531801   0.39189315
   0.41561724   0.43692551   0.45858787   0.4682894    0.47208582
   0.48532688   0.51474511   0.52384551   0.5382124    0.54165752
   0.57871978   0.58758852   0.6011926    0.60515657   0.63899414
   0.65171435   0.6620688    0.70662282   0.72522368   0.77081773
   0.78711061   0.79645214   0.80999431   0.8139508    0.82697257
   0.89996933   0.92891828   1.01039359   1.08675215]
nelec by numeric integration = 145.9999975256189
    CPU time for vxc     38.06 sec, wall time     15.68 sec
E1 = -4123.545591937019  Ecoul = 1906.645952224935  Exc = -124.7449159104489
cycle= 15 E= -835.536189041226  delta_E= -4.91e-11  |g|= 3.38e-06  |ddm|= 2.13e-05
    CPU time for cycle= 15     38.42 sec, wall time     15.74 sec
  HOMO = -0.100314836757845  LUMO = -0.0379244901079532
  mo_energy =
[-10.03870371 -10.03749993 -10.03310243 -10.0297187  -10.02681478
 -10.02510308 -10.01990152 -10.01823275 -10.0175399  -10.01724593
 -10.01666945 -10.01594189 -10.01354934 -10.01215201 -10.00712218
 -10.00697875 -10.00600405 -10.00533389 -10.0048807  -10.00406727
  -9.99950866  -9.99869364  -0.86307894  -0.85654979  -0.83608606
  -0.80270336  -0.76676925  -0.76283302  -0.73395703  -0.71906021
  -0.7025706   -0.68083738  -0.64434915  -0.63929857  -0.60896655
  -0.59033302  -0.56795709  -0.56755216  -0.54462988  -0.53088406
  -0.50008638  -0.48896651  -0.47669652  -0.47205077  -0.44450814
  -0.43678377  -0.43616894  -0.41766872  -0.40908515  -0.40247394
  -0.38820528  -0.37790186  -0.3677595   -0.36236455  -0.3585056
  -0.33960585  -0.33757742  -0.32953304  -0.31826603  -0.3077799
  -0.29851959  -0.29531463  -0.28537086  -0.26875641  -0.25762793
  -0.23910343  -0.22780834  -0.2227994   -0.19352751  -0.18463338
  -0.16428738  -0.15576877  -0.10031484  -0.03792449   0.01822835
   0.04943773   0.07050087   0.0968866    0.14248544   0.16354303
   0.18222482   0.19061733   0.20985433   0.21905058   0.23937285
   0.24681973   0.27126783   0.27852314   0.30209974   0.31907356
   0.34061771   0.36091857   0.38059083   0.38531796   0.39189348
   0.41561699   0.43692582   0.45858794   0.46828898   0.47208604
   0.4853272    0.51474491   0.52384553   0.53821217   0.5416576
   0.57871974   0.58758821   0.60119289   0.60515673   0.63899405
   0.6517147    0.66206915   0.70662248   0.72522376   0.77081789
   0.78711077   0.79645206   0.80999435   0.81395093   0.8269727
   0.89996981   0.92891779   1.01039416   1.08675239]
nelec by numeric integration = 145.99999752561894
    CPU time for vxc     37.81 sec, wall time     15.59 sec
E1 = -4123.545579473603  Ecoul = 1906.6459395570882  Exc = -124.74491570600546
Extra cycle  E= -835.536189041213  delta_E= 1.27e-11  |g|= 7.89e-06  |ddm|= 2.04e-05
    CPU time for scf_cycle    661.12 sec, wall time    270.04 sec
    CPU time for SCF    661.12 sec, wall time    270.04 sec
converged SCF energy = -835.536189041213
nelec by numeric integration = 145.99999752561894
    CPU time for vxc     38.73 sec, wall time     15.93 sec
 ** Mulliken pop  **
pop of  0 C 1s            1.99143
pop of  0 C 2s            1.05856
pop of  0 C 2px           1.01289
pop of  0 C 2py           0.93571
pop of  0 C 2pz           0.98648
pop of  1 C 1s            1.99152
pop of  1 C 2s            1.14295
pop of  1 C 2px           0.97318
pop of  1 C 2py           0.93764
pop of  1 C 2pz           0.92814
pop of  2 C 1s            1.99051
pop of  2 C 2s            1.07572
pop of  2 C 2px           1.02206
pop of  2 C 2py           1.00500
pop of  2 C 2pz           1.05078
pop of  3 C 1s            1.99179
pop of  3 C 2s            1.24335
pop of  3 C 2px           0.92016
pop of  3 C 2py           0.92690
pop of  3 C 2pz           0.95717
pop of  4 C 1s            1.99234
pop of  4 C 2s            1.06535
pop of  4 C 2px           0.98587
pop of  4 C 2py           1.02235
pop of  4 C 2pz           1.08455
pop of  5 C 1s            1.99073
pop of  5 C 2s            1.14096
pop of  5 C 2px           1.05084
pop of  5 C 2py           0.93617
pop of  5 C 2pz           1.00226
pop of  6 C 1s            1.99059
pop of  6 C 2s            1.05502
pop of  6 C 2px           1.02209
pop of  6 C 2py           1.03816
pop of  6 C 2pz           1.00111
pop of  7 C 1s            1.99102
pop of  7 C 2s            1.16187
pop of  7 C 2px           0.97114
pop of  7 C 2py           0.93547
pop of  7 C 2pz           0.95143
pop of  8 C 1s            1.99012
pop of  8 C 2s            1.07637
pop of  8 C 2px           1.03740
pop of  8 C 2py           0.97320
pop of  8 C 2pz           0.96843
pop of  9 C 1s            1.99062
pop of  9 C 2s            1.12181
pop of  9 C 2px           0.98802
pop of  9 C 2py           0.94206
pop of  9 C 2pz           0.94740
pop of  10 C 1s           1.99111
pop of  10 C 2s           1.11184
pop of  10 C 2px          0.99123
pop of  10 C 2py          0.96854
pop of  10 C 2pz          0.96493
pop of  11 C 1s           1.99119
pop of  11 C 2s           1.19421
pop of  11 C 2px          0.97752
pop of  11 C 2py          0.92534
pop of  11 C 2pz          0.97866
pop of  12 C 1s           1.99047
pop of  12 C 2s           1.06614
pop of  12 C 2px          1.00943
pop of  12 C 2py          0.99412
pop of  12 C 2pz          0.97192
pop of  13 C 1s           1.99100
pop of  13 C 2s           1.16297
pop of  13 C 2px          0.96551
pop of  13 C 2py          0.94513
pop of  13 C 2pz          0.93051
pop of  14 C 1s           1.99095
pop of  14 C 2s           1.18031
pop of  14 C 2px          0.96787
pop of  14 C 2py          0.94992
pop of  14 C 2pz          0.98320
pop of  15 C 1s           1.99108
pop of  15 C 2s           1.09953
pop of  15 C 2px          1.00061
pop of  15 C 2py          0.99103
pop of  15 C 2pz          0.97322
pop of  16 C 1s           1.99151
pop of  16 C 2s           1.24767
pop of  16 C 2px          0.94304
pop of  16 C 2py          0.90313
pop of  16 C 2pz          0.90246
pop of  17 C 1s           1.99045
pop of  17 C 2s           1.09160
pop of  17 C 2px          0.98202
pop of  17 C 2py          0.98864
pop of  17 C 2pz          0.97494
pop of  18 C 1s           1.99123
pop of  18 C 2s           1.18557
pop of  18 C 2px          0.95898
pop of  18 C 2py          0.95695
pop of  18 C 2pz          1.00276
pop of  19 C 1s           1.99084
pop of  19 C 2s           1.16699
pop of  19 C 2px          0.97306
pop of  19 C 2py          0.94914
pop of  19 C 2pz          0.98580
pop of  20 C 1s           1.99088
pop of  20 C 2s           1.11991
pop of  20 C 2px          0.97422
pop of  20 C 2py          1.00626
pop of  20 C 2pz          0.98103
pop of  21 C 1s           1.99126
pop of  21 C 2s           1.15689
pop of  21 C 2px          0.97163
pop of  21 C 2py          0.96732
pop of  21 C 2pz          0.94703
pop of  22 H 1s           0.87994
pop of  23 H 1s           0.92761
pop of  24 H 1s           0.87463
pop of  25 H 1s           0.89092
pop of  26 H 1s           0.91525
pop of  27 H 1s           0.94136
pop of  28 H 1s           0.96682
pop of  29 H 1s           0.90989
pop of  30 H 1s           0.92849
pop of  31 H 1s           0.96926
pop of  32 H 1s           0.89647
pop of  33 H 1s           0.90550
pop of  34 H 1s           0.93506
pop of  35 H 1s           0.95941
 ** Mulliken atomic charges  **
charge of    0C =      0.01492
charge of    1C =      0.02657
charge of    2C =     -0.14407
charge of    3C =     -0.03938
charge of    4C =     -0.15046
charge of    5C =     -0.12096
charge of    6C =     -0.10697
charge of    7C =     -0.01093
charge of    8C =     -0.04551
charge of    9C =      0.01010
charge of   10C =     -0.02765
charge of   11C =     -0.06692
charge of   12C =     -0.03208
charge of   13C =      0.00488
charge of   14C =     -0.07226
charge of   15C =     -0.05546
charge of   16C =      0.01219
charge of   17C =     -0.02766
charge of   18C =     -0.09549
charge of   19C =     -0.06583
charge of   20C =     -0.07230
charge of   21C =     -0.03413
charge of   22H =      0.12006
charge of   23H =      0.07239
charge of   24H =      0.12537
charge of   25H =      0.10908
charge of   26H =      0.08475
charge of   27H =      0.05864
charge of   28H =      0.03318
charge of   29H =      0.09011
charge of   30H =      0.07151
charge of   31H =      0.03074
charge of   32H =      0.10353
charge of   33H =      0.09450
charge of   34H =      0.06494
charge of   35H =      0.04059
Dipole moment(X, Y, Z, Debye):  0.26101,  0.42603,  0.13688
nelec by numeric integration = 145.99999752561894
    CPU time for vxc     37.28 sec, wall time     15.60 sec
E1 = -4123.545579473603  Ecoul = 1906.6459395570878  Exc = -124.74491570600546
nelec by numeric integration = 145.99999752561894
    CPU time for vxc     37.27 sec, wall time     15.55 sec
E1 = -4123.545579473603  Ecoul = 1906.645939557088  Exc = -124.74491570600546
