System: uname_result(system='Linux', node='cosmopc18', release='5.15.0-97-generic', version='#107-Ubuntu SMP Wed Feb 7 13:26:48 UTC 2024', machine='x86_64')  Threads 4
Python 3.11.8 (main, Feb 26 2024, 21:39:34) [GCC 11.2.0]
numpy 1.26.4  scipy 1.11.4
Date: Tue Apr  9 13:08:04 2024
PySCF version 2.3.0
PySCF path  /home/saade/miniconda3/envs/tutorial/lib/python3.11/site-packages/pyscf

[ENV] PYSCFAD_BACKEND torch
[CONFIG] conf_file None
[INPUT] verbose = 5
[INPUT] max_memory = 4000 
[INPUT] num. atoms = 36
[INPUT] num. electrons = 146
[INPUT] charge = 0
[INPUT] spin (= nelec alpha-beta = 2S) = 0
[INPUT] symmetry False subgroup None
[INPUT] Mole.unit = angstrom
[INPUT] Symbol           X                Y                Z      unit          X                Y                Z       unit  Magmom
[INPUT]  1 C     -0.012423000000   3.583725000000   0.917085000000 AA   -0.023476067645   6.772258755757   1.733039482947 Bohr   0.0
[INPUT]  2 C      0.056392000000   3.818721000000  -0.714647000000 AA    0.106565435616   7.216336836125  -1.350487105742 Bohr   0.0
[INPUT]  3 C     -0.228956000000   4.964381000000   1.597166000000 AA   -0.432664134576   9.381320467994   3.018206315467 Bohr   0.0
[INPUT]  4 C     -0.078178000000   2.416481000000   1.471566000000 AA   -0.147735008966   4.566487275215   2.780856714222 Bohr   0.0
[INPUT]  5 C      0.013316000000   4.949706000000  -1.331310000000 AA    0.025163593075   9.353588737116  -2.515811286895 Bohr   0.0
[INPUT]  6 C     -0.019301000000   2.325842000000  -1.352930000000 AA   -0.036473603930   4.395204389011  -2.556667165708 Bohr   0.0
[INPUT]  7 C     -0.068640000000   5.995229000000  -0.728422000000 AA   -0.129710801190  11.329340864050  -1.376518083108 Bohr   0.0
[INPUT]  8 C      0.025624000000   6.014770000000   0.574275000000 AA    0.048422342216  11.366268002250   1.085222470185 Bohr   0.0
[INPUT]  9 C     -0.069215000000   1.254336000000   0.602099000000 AA   -0.130797393712   2.370351508182   1.137802209874 Bohr   0.0
[INPUT] 10 C     -0.123735000000   1.146329000000  -0.555715000000 AA   -0.233825262023   2.166247858647  -1.050149153313 Bohr   0.0
[INPUT] 11 C     -0.066996000000   0.371908000000   1.430724000000 AA   -0.126604091441   0.702804263535   2.703676519842 Bohr   0.0
[INPUT] 12 C      0.124865000000   0.125545000000  -1.468376000000 AA    0.235960652544   0.237245666309  -2.774828487884 Bohr   0.0
[INPUT] 13 C     -0.034105000000  -1.255612000000   0.767119000000 AA   -0.064449109478  -2.372762798717   1.449644814950 Bohr   0.0
[INPUT] 14 C      0.114704000000  -1.309344000000  -0.595534000000 AA    0.216759145392  -2.474301562843  -1.125396157867 Bohr   0.0
[INPUT] 15 C     -0.106111000000  -2.529428000000   1.604398000000 AA   -0.200520728804  -4.779926171806   3.031872814800 Bohr   0.0
[INPUT] 16 C      0.126200000000  -2.380774000000  -1.347111000000 AA    0.238483436920  -4.499010824485  -2.545670849389 Bohr   0.0
[INPUT] 17 C     -0.024783000000  -3.760127000000   0.640763000000 AA   -0.046833082545  -7.105610223582   1.210866580755 Bohr   0.0
[INPUT] 18 C      0.028242000000  -3.595380000000  -0.929386000000 AA    0.053369645210  -6.794283513739  -1.756285004005 Bohr   0.0
[INPUT] 19 C     -0.025249000000  -4.915015000000   1.142396000000 AA   -0.047713694919  -9.288032248129   2.158815565799 Bohr   0.0
[INPUT] 20 C     -0.083337000000  -4.793385000000  -1.398473000000 AA   -0.157484106043  -9.058184859598  -2.642730962599 Bohr   0.0
[INPUT] 21 C     -0.067618000000  -6.201974000000   0.603356000000 AA   -0.127779501091 -11.720032291673   1.140177595613 Bohr   0.0
[INPUT] 22 C      0.066893000000  -6.005341000000  -0.689447000000 AA    0.126409449651 -11.348449774622  -1.302866007403 Bohr   0.0
[INPUT] 23 H     -0.092724000000   4.973494000000   2.426573000000 AA   -0.175222965174   9.398541542168   4.585558391264 Bohr   0.0
[INPUT] 24 H      0.073245000000   2.498473000000   2.583055000000 AA    0.138412989994   4.721429699620   4.881266514688 Bohr   0.0
[INPUT] 25 H     -0.193976000000   4.811792000000  -2.486020000000 AA   -0.366561514739   9.092969048373  -4.697896940191 Bohr   0.0
[INPUT] 26 H     -0.081449000000   2.414860000000  -2.620057000000 AA   -0.153916303120   4.563424029167  -4.951190160750 Bohr   0.0
[INPUT] 27 H      0.125877000000   6.966380000000  -1.282625000000 AA    0.237873055382  13.164550279648  -2.423809970520 Bohr   0.0
[INPUT] 28 H      0.135338000000   7.026755000000   1.398222000000 AA    0.255751754246  13.278642494418   2.642256641342 Bohr   0.0
[INPUT] 29 H     -0.114031000000  -0.021301000000   2.491954000000 AA   -0.215487359710  -0.040253056179   4.709110575014 Bohr   0.0
[INPUT] 30 H     -0.007411000000  -0.130280000000  -2.555208000000 AA   -0.014004760309  -0.246193519508  -4.828643311298 Bohr   0.0
[INPUT] 31 H     -0.088297000000  -2.409469000000   2.448533000000 AA   -0.166857147621  -4.553236515630   4.627056776960 Bohr   0.0
[INPUT] 32 H     -0.025970000000  -2.570426000000  -2.523258000000 AA   -0.049076187455  -4.857401163461  -4.768266561618 Bohr   0.0
[INPUT] 33 H     -0.135115000000  -4.970006000000   2.305592000000 AA   -0.255330345321  -9.391950177445   4.356937434988 Bohr   0.0
[INPUT] 34 H      0.080330000000  -4.898047000000  -2.649992000000 AA    0.151801699586  -9.255967375248  -5.007759112288 Bohr   0.0
[INPUT] 35 H     -0.051638000000  -7.109986000000   1.294009000000 AA   -0.097581677620 -13.435926289492   2.445322612722 Bohr   0.0
[INPUT] 36 H     -0.151143000000  -7.014232000000  -1.061168000000 AA   -0.285618875645 -13.254977454160  -2.005316892152 Bohr   0.0
[INPUT] ---------------- BASIS SET ---------------- 
[INPUT] l, kappa, [nprim/nctr], expnt,             c_1 c_2 ...
[INPUT] H
[INPUT] 0    0    [3    /1   ]  3.42525091        0.15432897
                                0.62391373        0.53532814
                                0.1688554         0.44463454
[INPUT] C
[INPUT] 0    0    [3    /1   ]  71.616837         0.15432897
                                13.045096         0.53532814
                                3.5305122         0.44463454
[INPUT] 0    0    [3    /1   ]  2.9412494         -0.09996723
                                0.6834831         0.39951283
                                0.2222899         0.70011547
[INPUT] 1    0    [3    /1   ]  2.9412494         0.15591627
                                0.6834831         0.60768372
                                0.2222899         0.39195739

nuclear repulsion = 1501.67151654604
number of shells = 80
number of NR pGTOs = 372
number of NR cGTOs = 124
basis = sto3g
ecp = {}
CPU time:     30217.08
atom C rad-grids = 99, ang-grids = [ 50  50  50  50  50  50  50  50  50  50  50  50  50  50  50  50  50  50
  50  50  50  50  50  50  50  50  50  50  50  50  50  86  86  86  86  86
  86  86  86  86  86  86  86 434 434 434 434 434 434 434 434 434 590 590
 590 590 590 590 590 590 590 590 590 590 590 590 590 590 590 590 590 590
 590 590 590 590 590 590 590 434 434 434 434 434 434 434 434 434 434 434
 434 434 434 434 434 434 434 434 434]
atom H rad-grids = 99, ang-grids = [ 50  50  50  50  50  50  50  50  50  50  50  50  50  50  50  50  50  50
  50  50  50  50  50  50  50  50  50  50  86  86  86  86  86  86  86 434
 434 434 434 434 434 434 434 590 590 590 590 590 590 590 590 590 590 590
 590 590 590 590 590 590 590 590 590 590 590 590 590 590 590 434 434 434
 434 434 434 434 434 434 434 434 434 434 434 434 434 434 434 434 434 434
 434 434 434 434 434 434 434 434 434]
tot_boxes 5270, boxes in each direction [ 8 29 15]
Padding 0 grids
tot grids = 1157832


******** <class 'pyscf.dft.rks.RKS'> ********
method = RKS
initial guess = minao
damping factor = 0
level_shift factor = 0
DIIS = <class 'pyscf.scf.diis.CDIIS'>
diis_start_cycle = 1
diis_space = 8
SCF conv_tol = 1e-10
SCF conv_tol_grad = None
SCF max_cycles = 50
direct_scf = True
direct_scf_tol = 1e-13
chkfile to save SCF result = /home/saade/mlelec/tutorials/tmpnbtp9hiz
max_memory 4000 MB (current use 637 MB)
XC library pyscf.dft.libxc version 6.1.0
    S. Lehtola, C. Steigemann, M. J.T. Oliveira, and M. A.L. Marques.,  SoftwareX 7, 1–5 (2018)
XC functionals = b3lypg
    P. J. Stephens, F. J. Devlin, C. F. Chabalowski, and M. J. Frisch.,  J. Phys. Chem. 98, 11623 (1994)
radial grids: 
    Treutler-Ahlrichs [JCP 102, 346 (1995); DOI:10.1063/1.469408] (M4) radial grids
    
becke partition: Becke, JCP 88, 2547 (1988); DOI:10.1063/1.454033
pruning grids: <function nwchem_prune at 0x7f9db5616ca0>
grids dens level: 3
symmetrized grids: False
atomic radii adjust function: <function treutler_atomic_radii_adjust at 0x7f9db5617380>
User specified grid scheme (99, 590)
small_rho_cutoff = 1e-07
Set gradient conv threshold to 1e-05
Initial guess from minao.
nelec by numeric integration = 145.27346395329408
    CPU time for vxc     36.68 sec, wall time     15.44 sec
E1 = -4103.094054970252  Ecoul = 1885.9218171545845  Exc = -126.1344689554994
init E= -841.635190225123
cond(S) = 25.536844415052286
    CPU time for initialize scf     46.75 sec, wall time     17.86 sec
  HOMO = -0.193449711065005  LUMO = -0.150877206260097
  mo_energy =
[-1.01873994e+01 -1.01578936e+01 -1.01340900e+01 -1.01293059e+01
 -1.01226308e+01 -1.01215096e+01 -1.01131592e+01 -1.01100730e+01
 -1.01088562e+01 -1.01086655e+01 -1.01059704e+01 -1.01033879e+01
 -1.00987175e+01 -1.00973215e+01 -1.00965008e+01 -1.00931994e+01
 -1.00895405e+01 -1.00861389e+01 -1.00836941e+01 -1.00818709e+01
 -1.00796962e+01 -1.00727305e+01 -1.13226811e+00 -1.08367343e+00
 -1.06636436e+00 -1.00838003e+00 -9.54687867e-01 -9.35795369e-01
 -9.15730108e-01 -8.92691618e-01 -8.71895728e-01 -8.38529558e-01
 -7.95749765e-01 -7.79288926e-01 -7.34085762e-01 -7.24551721e-01
 -6.98154406e-01 -6.83875907e-01 -6.59425854e-01 -6.30273959e-01
 -5.94715401e-01 -5.81070381e-01 -5.75275793e-01 -5.59567477e-01
 -5.38788990e-01 -5.33905641e-01 -5.31892699e-01 -5.16719028e-01
 -5.03092487e-01 -4.89201394e-01 -4.73087286e-01 -4.67575307e-01
 -4.62928395e-01 -4.51966869e-01 -4.41233478e-01 -4.38876612e-01
 -4.27057820e-01 -4.21269552e-01 -3.94568195e-01 -3.92441776e-01
 -3.77964717e-01 -3.58378857e-01 -3.48564296e-01 -3.41205002e-01
 -3.37207077e-01 -3.23320978e-01 -3.08089219e-01 -3.00631171e-01
 -2.95568850e-01 -2.86042804e-01 -2.77484989e-01 -2.44181454e-01
 -1.93449711e-01 -1.50877206e-01 -1.16235950e-01 -7.58996326e-02
 -5.15569022e-02 -2.75174045e-02 -6.77412679e-04  1.69545852e-02
  6.52983470e-02  7.80400775e-02  9.90186988e-02  1.10200286e-01
  1.18815155e-01  1.31789729e-01  1.42102100e-01  1.54619568e-01
  1.65939081e-01  1.66629279e-01  1.79494014e-01  1.88549786e-01
  1.97465524e-01  2.08821302e-01  2.30663744e-01  2.43751397e-01
  2.49523178e-01  2.74146688e-01  2.78054043e-01  2.85129738e-01
  2.90375125e-01  3.02870362e-01  3.34353960e-01  3.68326477e-01
  3.82004410e-01  4.11292292e-01  4.18394027e-01  4.50787966e-01
  4.90325995e-01  5.01863880e-01  5.33696843e-01  5.55191913e-01
  5.72467114e-01  6.34392313e-01  6.47573248e-01  6.69351480e-01
  7.07690362e-01  7.18591060e-01  7.25716562e-01  7.64328448e-01
  7.97617335e-01  8.09870314e-01  8.19467207e-01  9.07490318e-01]
nelec by numeric integration = 146.0000016938257
    CPU time for vxc     38.08 sec, wall time     15.69 sec
E1 = -4118.215928616799  Ecoul = 1905.9979182559966  Exc = -124.79977447248062
cycle= 1 E= -835.346268287239  delta_E= 6.29  |g|= 0.396  |ddm|= 9.36
    CPU time for cycle= 1     38.48 sec, wall time     15.75 sec
  HOMO = -0.0945382799536503  LUMO = -0.00451950025981059
  mo_energy =
[-1.01420401e+01 -1.01388544e+01 -1.00580738e+01 -1.00100160e+01
 -9.99870230e+00 -9.99609637e+00 -9.99455134e+00 -9.99404528e+00
 -9.99389210e+00 -9.99110808e+00 -9.98031787e+00 -9.97893873e+00
 -9.97477750e+00 -9.97339761e+00 -9.97132217e+00 -9.96984518e+00
 -9.94872675e+00 -9.93841853e+00 -9.93223317e+00 -9.91251178e+00
 -9.86693450e+00 -9.83552272e+00 -8.79339579e-01 -8.30542518e-01
 -7.92478407e-01 -7.83366405e-01 -7.61891416e-01 -7.30514894e-01
 -7.13107883e-01 -6.81475734e-01 -6.65556102e-01 -6.56152818e-01
 -6.40481691e-01 -6.04372977e-01 -5.97914771e-01 -5.80572072e-01
 -5.55455429e-01 -5.38519275e-01 -5.16067940e-01 -4.99494288e-01
 -4.81081587e-01 -4.73453641e-01 -4.65868022e-01 -4.46301312e-01
 -4.39227200e-01 -4.23403234e-01 -4.12505229e-01 -3.91861172e-01
 -3.89827876e-01 -3.82916131e-01 -3.65216795e-01 -3.58185289e-01
 -3.49355111e-01 -3.41726157e-01 -3.33447693e-01 -3.29049613e-01
 -3.18600183e-01 -3.08764615e-01 -2.98414574e-01 -2.86855831e-01
 -2.78936603e-01 -2.62318810e-01 -2.41279989e-01 -2.27518821e-01
 -2.26693584e-01 -2.17631251e-01 -1.99996855e-01 -1.92493227e-01
 -1.69480242e-01 -1.58184867e-01 -1.48196037e-01 -1.27347278e-01
 -9.45382800e-02 -4.51950026e-03  3.35981305e-02  5.62285477e-02
  9.71536248e-02  1.48021786e-01  1.69090406e-01  1.93202386e-01
  2.05729554e-01  2.07635863e-01  2.30221563e-01  2.47062763e-01
  2.48786881e-01  2.62748236e-01  2.76446383e-01  2.97830419e-01
  3.01466375e-01  3.14237732e-01  3.27227279e-01  3.33324829e-01
  3.47827645e-01  3.63462880e-01  3.70336015e-01  3.81710208e-01
  4.11359043e-01  4.15906061e-01  4.28807759e-01  4.44402902e-01
  4.50550679e-01  4.81787816e-01  4.85701364e-01  5.23627995e-01
  5.41079276e-01  5.59170671e-01  5.78986934e-01  5.86277960e-01
  6.24229197e-01  6.60952458e-01  7.09174334e-01  7.21796915e-01
  7.58060172e-01  8.04438590e-01  8.15948837e-01  8.61850848e-01
  8.70118556e-01  8.88967681e-01  9.13370827e-01  9.59510345e-01
  9.81590372e-01  9.87444553e-01  1.00698592e+00  1.08373531e+00]
nelec by numeric integration = 146.0000014709774
    CPU time for vxc     37.95 sec, wall time     15.67 sec
E1 = -4113.486280617379  Ecoul = 1901.490285962099  Exc = -124.66141930885657
cycle= 2 E= -834.985897418093  delta_E= 0.36  |g|= 1.01  |ddm|=  2.4
    CPU time for cycle= 2     38.32 sec, wall time     15.73 sec
  HOMO = -0.0791438421052277  LUMO = -0.0095707273390911
  mo_energy =
[-1.00406100e+01 -1.00343650e+01 -1.00277205e+01 -1.00052243e+01
 -1.00037207e+01 -9.99898147e+00 -9.99891252e+00 -9.99860268e+00
 -9.99543274e+00 -9.99256233e+00 -9.99243833e+00 -9.99017615e+00
 -9.98737014e+00 -9.98612095e+00 -9.98550021e+00 -9.98502006e+00
 -9.98177680e+00 -9.97956558e+00 -9.97576631e+00 -9.97294813e+00
 -9.96817317e+00 -9.96617162e+00 -8.71644617e-01 -8.31297702e-01
 -8.25537468e-01 -7.79030171e-01 -7.47166179e-01 -7.34969868e-01
 -7.22332126e-01 -7.03216637e-01 -6.89010043e-01 -6.63999965e-01
 -6.35897496e-01 -6.18569846e-01 -5.93749127e-01 -5.80503993e-01
 -5.56762997e-01 -5.49701057e-01 -5.22994662e-01 -5.06061068e-01
 -4.75361292e-01 -4.68688400e-01 -4.65014625e-01 -4.54914494e-01
 -4.37618707e-01 -4.28323042e-01 -4.23339803e-01 -4.09006386e-01
 -3.85883171e-01 -3.81503870e-01 -3.71959997e-01 -3.63110254e-01
 -3.53491555e-01 -3.49069444e-01 -3.42535216e-01 -3.31661476e-01
 -3.27282716e-01 -3.23740958e-01 -3.01056419e-01 -2.83851804e-01
 -2.76281553e-01 -2.64738493e-01 -2.45837313e-01 -2.42242361e-01
 -2.31342356e-01 -2.25170649e-01 -2.10511701e-01 -2.00432769e-01
 -1.86225306e-01 -1.83476462e-01 -1.74667678e-01 -1.31589567e-01
 -7.91438421e-02 -9.57072734e-03  3.09446082e-02  7.18418016e-02
  9.62892917e-02  1.18947921e-01  1.53093494e-01  1.71667553e-01
  2.18957152e-01  2.26830260e-01  2.31372914e-01  2.53233120e-01
  2.62281924e-01  2.72390089e-01  2.82066749e-01  2.96027594e-01
  3.09588429e-01  3.22437628e-01  3.24963619e-01  3.35717063e-01
  3.39065390e-01  3.55636166e-01  3.63085324e-01  3.85959472e-01
  3.90748758e-01  4.10823613e-01  4.18445989e-01  4.30686812e-01
  4.32412201e-01  4.46457864e-01  4.86418863e-01  5.21650164e-01
  5.24077866e-01  5.56657512e-01  5.64449563e-01  6.09477496e-01
  6.47689784e-01  6.63576045e-01  6.87409842e-01  7.10365662e-01
  7.30388429e-01  7.91181335e-01  8.04935441e-01  8.14010255e-01
  8.49596367e-01  8.68904244e-01  8.92496396e-01  9.18519848e-01
  9.61147161e-01  9.66772338e-01  9.80016031e-01  1.07209211e+00]
nelec by numeric integration = 146.00000162614265
    CPU time for vxc     38.84 sec, wall time     15.95 sec
E1 = -4113.164358913488  Ecoul = 1900.754676499042  Exc = -124.64074069589684
cycle= 3 E= -835.3789065643  delta_E= -0.393  |g|= 0.294  |ddm|=  2.2
    CPU time for cycle= 3     39.31 sec, wall time     16.02 sec
  HOMO = -0.0936987525865285  LUMO = -0.0278526664575685
  mo_energy =
[-10.06513137 -10.06292871 -10.02851127 -10.02721258 -10.02662845
 -10.02628123 -10.02379174 -10.01701535 -10.01623451 -10.01289124
 -10.0110991  -10.00700913 -10.00415813 -10.00342168 -10.00329625
 -10.00173648 -10.00085541  -9.9984082   -9.9977797   -9.99649748
  -9.99399254  -9.99055942  -0.88964251  -0.84873748  -0.83954198
  -0.80054889  -0.76350978  -0.74633068  -0.73225444  -0.71648436
  -0.69929564  -0.67414586  -0.6431799   -0.640439    -0.60942657
  -0.59303283  -0.56849996  -0.56178495  -0.53730708  -0.51141893
  -0.48704887  -0.47662782  -0.47213089  -0.46475482  -0.44672728
  -0.43729335  -0.43381526  -0.4234305   -0.39985598  -0.3977388
  -0.37995122  -0.37529296  -0.36413401  -0.35860815  -0.35662599
  -0.34287201  -0.34025512  -0.33581089  -0.3127614   -0.30003062
  -0.29353696  -0.27169284  -0.25734524  -0.25604352  -0.24379461
  -0.23751246  -0.22180282  -0.21139207  -0.20018753  -0.19635512
  -0.18625655  -0.14492975  -0.09369875  -0.02785267   0.01738605
   0.05603534   0.08274172   0.10847079   0.14137727   0.15860708
   0.20308205   0.21719399   0.2254804    0.24115117   0.24981973
   0.26514051   0.27202187   0.28503613   0.30097898   0.30721784
   0.30945365   0.3205848    0.32934874   0.34213586   0.36306528
   0.37398028   0.38159063   0.40052896   0.41196027   0.42069619
   0.42332526   0.4351143    0.47401909   0.51133189   0.51655671
   0.5452544    0.55088394   0.5875229    0.62444255   0.64300834
   0.67392058   0.69452484   0.71021675   0.78250485   0.79196102
   0.8071043    0.84333152   0.85379095   0.86543193   0.90532538
   0.94485437   0.95850176   0.96049804   1.0496789 ]
nelec by numeric integration = 146.00000163155065
    CPU time for vxc     38.48 sec, wall time     15.86 sec
E1 = -4115.110794829603  Ecoul = 1902.697891810549  Exc = -124.668284538272
cycle= 4 E= -835.409671011283  delta_E= -0.0308  |g|= 0.101  |ddm|= 0.628
    CPU time for cycle= 4     39.19 sec, wall time     15.96 sec
  HOMO = -0.0969192150462239  LUMO = -0.0287433048040092
  mo_energy =
[-10.06430799 -10.06231148 -10.03297823 -10.0317227  -10.03021
 -10.0246086  -10.02242651 -10.01933565 -10.01895891 -10.01768851
 -10.01442243 -10.01236921 -10.00983399 -10.00885475 -10.00803393
 -10.00738809 -10.0062565  -10.00151876  -9.99934488  -9.99755871
  -9.99637594  -9.98359425  -0.89200071  -0.84719789  -0.84313137
  -0.79707346  -0.76484901  -0.74835554  -0.73444338  -0.7169658
  -0.70071771  -0.67737004  -0.64607186  -0.63767207  -0.61081917
  -0.59653026  -0.56889022  -0.56287798  -0.53695973  -0.51358698
  -0.48656201  -0.47926069  -0.47568748  -0.46571781  -0.44627702
  -0.43810089  -0.43433983  -0.42371695  -0.40193467  -0.39811378
  -0.37952178  -0.3768086   -0.3634146   -0.36189536  -0.35562717
  -0.34640455  -0.34403721  -0.33467567  -0.31553111  -0.29929189
  -0.29257688  -0.27256131  -0.25701709  -0.25634944  -0.24678594
  -0.23931132  -0.22231213  -0.2148453   -0.20131389  -0.19814098
  -0.18800067  -0.14818238  -0.09691922  -0.0287433    0.0133433
   0.05390926   0.08207058   0.10471357   0.14097346   0.1571615
   0.20432579   0.21464011   0.22373279   0.24213667   0.24700929
   0.26321023   0.27126276   0.28419834   0.29882851   0.30614025
   0.30871052   0.31993882   0.32808277   0.33869018   0.35841209
   0.37663057   0.38194558   0.40205138   0.41281373   0.41944178
   0.4237553    0.43324176   0.47084511   0.50783827   0.51453619
   0.54266906   0.54816238   0.59002189   0.62540293   0.64680859
   0.67170851   0.6948483    0.71173824   0.78220354   0.78999351
   0.80080735   0.84453162   0.85162814   0.87125267   0.90197269
   0.94164992   0.9521088    0.96179537   1.04775743]
nelec by numeric integration = 146.00000161733905
    CPU time for vxc     38.15 sec, wall time     15.82 sec
E1 = -4115.111057537564  Ecoul = 1902.7004826432997  Exc = -124.67272764845029
cycle= 5 E= -835.411785996671  delta_E= -0.00211  |g|= 0.0655  |ddm|= 0.247
    CPU time for cycle= 5     38.48 sec, wall time     15.87 sec
  HOMO = -0.0968667345088419  LUMO = -0.0267271424451648
  mo_energy =
[-10.05802433 -10.05602441 -10.02805636 -10.02495298 -10.02400489
 -10.02245334 -10.01972083 -10.01947299 -10.01549784 -10.01537597
 -10.01319202 -10.01286946 -10.01171531 -10.01163748 -10.00976731
 -10.00521757 -10.00425423 -10.00036427  -9.99765467  -9.99549233
  -9.99340061  -9.99058231  -0.88790133  -0.84691503  -0.84068986
  -0.7974497   -0.76221435  -0.74662986  -0.73243102  -0.71638939
  -0.69999182  -0.67504541  -0.64439396  -0.63753495  -0.60849424
  -0.59380503  -0.56819575  -0.56171423  -0.53636383  -0.51242067
  -0.48604944  -0.4771685   -0.47371118  -0.46455421  -0.4464426
  -0.4372854   -0.4347711   -0.42228351  -0.39914735  -0.39669845
  -0.37920452  -0.37498798  -0.36318092  -0.3599492   -0.35581281
  -0.34407905  -0.34093614  -0.33524308  -0.31357831  -0.29877711
  -0.29236943  -0.27209896  -0.25704683  -0.25563386  -0.24476559
  -0.23800463  -0.22175021  -0.21300732  -0.20062065  -0.19751824
  -0.18716744  -0.14620623  -0.09686673  -0.02672714   0.01631954
   0.05545428   0.08236797   0.10639185   0.14205777   0.15840332
   0.20480407   0.21629111   0.22481406   0.24183952   0.24954559
   0.26410114   0.27206348   0.28556875   0.30067247   0.30834808
   0.31023736   0.32169294   0.32884095   0.34192032   0.36070919
   0.37576064   0.38164776   0.40187272   0.41206193   0.42050343
   0.42327615   0.43454008   0.47284143   0.51040258   0.51553826
   0.54478078   0.55072638   0.59042116   0.62685098   0.64590527
   0.67309575   0.69535165   0.71259948   0.78309223   0.79064812
   0.80528986   0.8434752    0.85399408   0.87004071   0.90387041
   0.94420705   0.95632098   0.9617452    1.05252259]
nelec by numeric integration = 146.00000162041405
    CPU time for vxc     38.19 sec, wall time     15.84 sec
E1 = -4114.944411856871  Ecoul = 1902.5283941686278  Exc = -124.66878476374158
cycle= 6 E= -835.413285905941  delta_E= -0.0015  |g|= 0.0214  |ddm|= 0.121
    CPU time for cycle= 6     38.74 sec, wall time     15.93 sec
  HOMO = -0.0965510322578347  LUMO = -0.0259275031079143
  mo_energy =
[-10.06011575 -10.05811866 -10.02533085 -10.02439197 -10.02163284
 -10.0213305  -10.01961502 -10.01864312 -10.01668132 -10.01629419
 -10.01238552 -10.01082886 -10.01080175 -10.00961922 -10.00754717
 -10.00457809 -10.00374923  -9.99981207  -9.99840101  -9.99610011
  -9.99489576  -9.98792146  -0.88850184  -0.84627632  -0.8405652
  -0.79692504  -0.76219365  -0.7464699   -0.73233492  -0.71590541
  -0.69970255  -0.67478299  -0.64432678  -0.63712941  -0.60847311
  -0.59378897  -0.56768762  -0.56148083  -0.53596305  -0.51210077
  -0.4857876   -0.47712329  -0.47358078  -0.46418231  -0.44586425
  -0.43667752  -0.43435     -0.42223396  -0.39939421  -0.396661
  -0.37908499  -0.37505898  -0.36272872  -0.35975625  -0.35533385
  -0.34401218  -0.3409547   -0.33478125  -0.31355752  -0.29840082
  -0.29188294  -0.27187344  -0.25673298  -0.25554588  -0.24449389
  -0.23786711  -0.22141115  -0.21278636  -0.20010851  -0.19712639
  -0.18686254  -0.14591643  -0.09655103  -0.0259275    0.01651325
   0.05608141   0.08300939   0.10672644   0.14205737   0.15870562
   0.20516798   0.2168225    0.22472611   0.24229098   0.24968973
   0.26420926   0.27241671   0.28557665   0.30072001   0.3084728
   0.31033123   0.32170198   0.32933478   0.34191294   0.36102895
   0.37610136   0.38196663   0.40211951   0.41288106   0.42070714
   0.42409011   0.43468484   0.47315509   0.51054297   0.51575487
   0.54511248   0.55079414   0.59070077   0.62713062   0.64654401
   0.67331984   0.69589669   0.71282471   0.78295183   0.79185807
   0.80490625   0.84401377   0.85406967   0.87040274   0.90399268
   0.9443758    0.95633168   0.96231468   1.05149829]
nelec by numeric integration = 146.00000161936077
    CPU time for vxc     38.01 sec, wall time     15.86 sec
E1 = -4114.96524401747  Ecoul = 1902.5480180553918  Exc = -124.66770206514013
cycle= 7 E= -835.413411481174  delta_E= -0.000126  |g|= 0.00903  |ddm|= 0.028
    CPU time for cycle= 7     38.39 sec, wall time     15.92 sec
  HOMO = -0.0965580129774618  LUMO = -0.0258225465216119
  mo_energy =
[-10.06006768 -10.0580115  -10.02529773 -10.02459418 -10.02129765
 -10.02080944 -10.01939806 -10.0189969  -10.01588424 -10.01575108
 -10.01217323 -10.01071174 -10.01027125 -10.01001806 -10.0076121
 -10.00430426 -10.00408419  -9.99899482  -9.9984982   -9.99652205
  -9.99529023  -9.98863127  -0.88841649  -0.84620688  -0.84069893
  -0.79673575  -0.7621586   -0.7463327   -0.73236088  -0.71581837
  -0.69976957  -0.67466141  -0.64440978  -0.63701209  -0.60827929
  -0.59369475  -0.56760144  -0.56153354  -0.53587168  -0.51208067
  -0.48572063  -0.4771297   -0.47361362  -0.46408219  -0.44580849
  -0.43659599  -0.43452084  -0.42216779  -0.39925004  -0.39651314
  -0.37917936  -0.37505259  -0.36268497  -0.35969462  -0.35529868
  -0.34396759  -0.34079588  -0.33473485  -0.31354017  -0.29828295
  -0.29177454  -0.27182395  -0.25672389  -0.25545827  -0.24430791
  -0.23780879  -0.22131352  -0.21277066  -0.19997533  -0.19708026
  -0.18683083  -0.14577683  -0.09655801  -0.02582255   0.01665203
   0.05626247   0.08313988   0.10669914   0.14195704   0.15878287
   0.20535707   0.21703506   0.22473202   0.24246989   0.24988024
   0.26418041   0.27252715   0.28561483   0.30081512   0.30863403
   0.31039395   0.3218643    0.32947111   0.34200678   0.36112973
   0.3763211    0.38182593   0.40204518   0.41290149   0.42062427
   0.42403925   0.43461599   0.47344632   0.51058704   0.51561721
   0.54511901   0.5508027    0.59099904   0.62726335   0.646795
   0.67325587   0.69587791   0.71283876   0.78277328   0.7918125
   0.80513484   0.84370972   0.85424066   0.87064697   0.90385658
   0.94419097   0.95640289   0.96243948   1.05154394]
nelec by numeric integration = 146.00000162000688
    CPU time for vxc     38.11 sec, wall time     15.78 sec
E1 = -4114.950393000228  Ecoul = 1902.5332813464158  Exc = -124.66783784277749
cycle= 8 E= -835.413432950547  delta_E= -2.15e-05  |g|= 0.00514  |ddm|= 0.00832
    CPU time for cycle= 8     38.56 sec, wall time     15.85 sec
  HOMO = -0.0965829824048387  LUMO = -0.0257995260303908
  mo_energy =
[-10.05999551 -10.05787553 -10.02558229 -10.02475651 -10.02124674
 -10.02048825 -10.01926565 -10.01892927 -10.01607619 -10.01580112
 -10.01212569 -10.01099486 -10.01042928 -10.00982122 -10.00744749
 -10.00443062 -10.00381694  -9.99947288  -9.99863487  -9.99678469
  -9.99513727  -9.98895168  -0.88841516  -0.84614491  -0.84088063
  -0.79672398  -0.76214458  -0.74638517  -0.73243157  -0.7158116
  -0.69989048  -0.67467414  -0.6445488   -0.63695468  -0.60827508
  -0.59373462  -0.56761233  -0.56158375  -0.53582808  -0.51215763
  -0.48570244  -0.47717057  -0.47370825  -0.46406088  -0.44581315
  -0.4365562   -0.4346864   -0.42215767  -0.39925958  -0.39649418
  -0.37927404  -0.37512175  -0.36263501  -0.35972087  -0.35528059
  -0.34404906  -0.34077709  -0.33462265  -0.31356412  -0.29824708
  -0.2917316   -0.27191453  -0.2568095   -0.25549986  -0.24431843
  -0.23786138  -0.2212425   -0.21283571  -0.19998993  -0.19717445
  -0.186923    -0.14579868  -0.09658298  -0.02579953   0.01663696
   0.05626382   0.08313877   0.10660865   0.14186974   0.15876366
   0.20534872   0.21694968   0.22467278   0.24249905   0.24991567
   0.2640901    0.27258833   0.28561414   0.30079539   0.3087599
   0.31037018   0.32186002   0.32950379   0.34204463   0.36096915
   0.37636015   0.38168899   0.40197439   0.41298211   0.42052504
   0.42408452   0.43457115   0.47338625   0.5106471    0.51547942
   0.54516612   0.55083126   0.59099237   0.62733724   0.64676924
   0.67314566   0.69589641   0.71285895   0.78259512   0.79192506
   0.80505901   0.84349918   0.85424467   0.87066966   0.90367698
   0.94400899   0.95632211   0.96249248   1.05156765]
nelec by numeric integration = 146.00000162010696
    CPU time for vxc     38.34 sec, wall time     15.85 sec
E1 = -4114.952177557528  Ecoul = 1902.535165627467  Exc = -124.66794670602714
cycle= 9 E= -835.413442090044  delta_E= -9.14e-06  |g|= 0.00147  |ddm|= 0.00677
    CPU time for cycle= 9     38.86 sec, wall time     15.93 sec
  HOMO = -0.0965816028021411  LUMO = -0.0257884750170737
  mo_energy =
[-10.06007318 -10.0579502  -10.02564399 -10.02454454 -10.02138991
 -10.02038534 -10.01903482 -10.01887619 -10.01603754 -10.01590616
 -10.01215551 -10.01089161 -10.01045487 -10.00983656 -10.00755968
 -10.00441861 -10.00392209  -9.9992811   -9.9987556   -9.99691347
  -9.99510208  -9.98907441  -0.88845253  -0.84618762  -0.84077295
  -0.79673866  -0.76217199  -0.74640222  -0.73246291  -0.71583505
  -0.6998705   -0.67467809  -0.64454216  -0.63696434  -0.6082766
  -0.59370015  -0.5676099   -0.56157324  -0.53585864  -0.51217213
  -0.48571878  -0.4771295   -0.47370995  -0.4640648   -0.44582846
  -0.43656674  -0.43465893  -0.42215411  -0.39928507  -0.39650183
  -0.37928674  -0.37511407  -0.36266246  -0.35971181  -0.3552986
  -0.34400571  -0.34077076  -0.33464941  -0.313514    -0.29825656
  -0.29174984  -0.27190539  -0.25681779  -0.25550667  -0.24433088
  -0.23787643  -0.22127532  -0.21284523  -0.20001006  -0.19717355
  -0.18691084  -0.14580274  -0.0965816   -0.02578848   0.01663884
   0.05627127   0.08311593   0.10663086   0.1418304    0.15873975
   0.20535021   0.21695805   0.22471012   0.24248799   0.2499259
   0.26411645   0.27258543   0.28560779   0.30078871   0.30877854
   0.31035647   0.32184468   0.32947376   0.34205443   0.36097949
   0.37634774   0.38167671   0.40197469   0.4129466    0.42053439
   0.42406005   0.43460222   0.47341286   0.5106289    0.51554295
   0.54513808   0.5508093    0.59100141   0.62734107   0.6467613
   0.67318393   0.69586706   0.71282556   0.7825554    0.79187061
   0.80505707   0.84348626   0.85422288   0.87064573   0.90376011
   0.94412191   0.9562959    0.96243855   1.0515169 ]
nelec by numeric integration = 146.0000016202494
    CPU time for vxc     37.75 sec, wall time     15.63 sec
E1 = -4114.951939705468  Ecoul = 1902.5349307147849  Exc = -124.66795026743983
cycle= 10 E= -835.41344271208  delta_E= -6.22e-07  |g|= 0.000713  |ddm|= 0.00194
    CPU time for cycle= 10     38.26 sec, wall time     15.71 sec
  HOMO = -0.0965446532259339  LUMO = -0.0257545201428207
  mo_energy =
[-10.06000487 -10.05786844 -10.02560935 -10.02461597 -10.02130821
 -10.02027911 -10.01914785 -10.01873365 -10.01596871 -10.01582497
 -10.01209421 -10.01095971 -10.01038631 -10.00984317 -10.00752973
 -10.0044121  -10.00392213  -9.99928315  -9.99871099  -9.99690049
  -9.9951357   -9.98904012  -0.88839717  -0.84615889  -0.84082028
  -0.79670538  -0.76212153  -0.74637219  -0.73243812  -0.71580852
  -0.69987715  -0.67465765  -0.64454071  -0.63692036  -0.60823199
  -0.59368245  -0.56759402  -0.56156421  -0.53582912  -0.51215619
  -0.48570095  -0.47713291  -0.47370002  -0.46403093  -0.44580759
  -0.43654789  -0.4346795   -0.42212325  -0.3992423   -0.39646771
  -0.37927675  -0.3750988   -0.36264535  -0.35970006  -0.35528525
  -0.34400991  -0.34073751  -0.3346382   -0.31352182  -0.29823253
  -0.29172614  -0.27189977  -0.25680716  -0.25547453  -0.24430163
  -0.23784837  -0.22125046  -0.21282276  -0.19998158  -0.19715116
  -0.18690579  -0.14577651  -0.09654465  -0.02575452   0.01667
   0.05631267   0.08313864   0.10663063   0.14185128   0.15876088
   0.20537743   0.2169913    0.22469795   0.24251253   0.24996825
   0.26410269   0.27260136   0.28562206   0.30081047   0.30882095
   0.3103827    0.32188414   0.32950159   0.3420881    0.36100169
   0.37637611   0.38168569   0.40198733   0.41296305   0.42053776
   0.42406742   0.43459546   0.47343833   0.51064239   0.51551293
   0.54516513   0.5508464    0.59104305   0.62738534   0.64679577
   0.6731723    0.69588893   0.71286653   0.78256235   0.7918909
   0.80508881   0.84348306   0.85425628   0.87068602   0.90372124
   0.94407489   0.95633763   0.96247715   1.05157661]
nelec by numeric integration = 146.00000162025043
    CPU time for vxc     37.93 sec, wall time     15.74 sec
E1 = -4114.948728343359  Ecoul = 1902.531703265709  Exc = -124.66793435824216
cycle= 11 E= -835.413442889849  delta_E= -1.78e-07  |g|= 0.000208  |ddm|= 0.00137
    CPU time for cycle= 11     38.22 sec, wall time     15.79 sec
  HOMO = -0.096547745085633  LUMO = -0.0257553301692564
  mo_energy =
[-10.06000385 -10.05786653 -10.02562263 -10.02460477 -10.02128732
 -10.02027743 -10.01913562 -10.01875406 -10.01597572 -10.01581978
 -10.01208478 -10.01093039 -10.01039495 -10.00982868 -10.00750067
 -10.00438344 -10.00388955  -9.99930645  -9.99870455  -9.99690446
  -9.9951303   -9.98907367  -0.88840006  -0.8461479   -0.84080885
  -0.79669929  -0.7621249   -0.74637218  -0.73243873  -0.71580305
  -0.69987149  -0.67465592  -0.6445404   -0.63691837  -0.60823459
  -0.59368289  -0.56759057  -0.56156305  -0.53582347  -0.51215585
  -0.48569611  -0.47712838  -0.47370006  -0.46403219  -0.44580423
  -0.43654123  -0.43467861  -0.42212474  -0.3992437   -0.39646631
  -0.37927792  -0.37509801  -0.36263813  -0.35969724  -0.35527771
  -0.34400608  -0.340739    -0.33463101  -0.31351567  -0.29822674
  -0.29171891  -0.27189807  -0.25680625  -0.2554761   -0.2442995
  -0.23784873  -0.22124414  -0.21282263  -0.19997721  -0.19715294
  -0.18690085  -0.14577566  -0.09654775  -0.02575533   0.01666858
   0.05631023   0.0831467    0.10663663   0.1418518    0.15876509
   0.20537971   0.21698631   0.22470319   0.24251636   0.24996407
   0.26410922   0.27260576   0.28562747   0.30081266   0.30881949
   0.31038711   0.32188505   0.32950723   0.34209163   0.36099202
   0.37637877   0.38168116   0.40198597   0.41297144   0.42053934
   0.42407586   0.43460077   0.47343612   0.51064748   0.51551739
   0.54516919   0.55084552   0.59104353   0.62738765   0.64680023
   0.67318053   0.69589479   0.71286804   0.78256423   0.79190674
   0.80508581   0.84347705   0.85425985   0.87069208   0.90373035
   0.94408256   0.95633282   0.96248763   1.05157488]
nelec by numeric integration = 146.000001620259
    CPU time for vxc     37.90 sec, wall time     15.79 sec
E1 = -4114.94856617997  Ecoul = 1902.5315280301847  Exc = -124.66792129772978
cycle= 12 E= -835.413442901471  delta_E= -1.16e-08  |g|= 0.000101  |ddm|= 0.000305
    CPU time for cycle= 12     38.35 sec, wall time     15.86 sec
  HOMO = -0.0965491670021157  LUMO = -0.0257588248535303
  mo_energy =
[-10.06000631 -10.05786973 -10.02562262 -10.02461133 -10.02129146
 -10.02028839 -10.01913594 -10.01876811 -10.01597598 -10.01582365
 -10.0120914  -10.01093221 -10.01039261 -10.0098313  -10.00750041
 -10.00439545 -10.00388455  -9.99929503  -9.99870644  -9.99689784
  -9.99512347  -9.98906398  -0.88840225  -0.84614869  -0.84081142
  -0.79669968  -0.76212742  -0.74637228  -0.7324388   -0.71580329
  -0.69987233  -0.67465527  -0.64454036  -0.63692117  -0.60823651
  -0.59368504  -0.56759073  -0.56156409  -0.53582457  -0.51215606
  -0.48569689  -0.4771303   -0.47370111  -0.4640341   -0.44580517
  -0.43654158  -0.43467748  -0.42212718  -0.399245    -0.39646818
  -0.37927774  -0.3750998   -0.36263854  -0.35969828  -0.3552783
  -0.34400747  -0.34074069  -0.33463097  -0.31351814  -0.29822769
  -0.29171935  -0.27189806  -0.25680582  -0.25547727  -0.24429917
  -0.23785001  -0.2212452   -0.212824    -0.19997744  -0.19715349
  -0.18690178  -0.14577504  -0.09654917  -0.02575882   0.01666759
   0.0563078    0.08314712   0.10663431   0.14185185   0.15876555
   0.20537946   0.21698628   0.22470214   0.24251531   0.24996159
   0.26410878   0.27260455   0.2856255    0.30081124   0.30881473
   0.31038495   0.32188335   0.32950629   0.34208609   0.36099238
   0.3763781    0.38168202   0.40198557   0.41297035   0.42053829
   0.4240763    0.43459886   0.47343747   0.51064818   0.51551694
   0.54516876   0.55084391   0.59104265   0.62738419   0.64680014
   0.67317869   0.69589498   0.71286658   0.78256523   0.79190721
   0.80508631   0.84347903   0.85425932   0.87069076   0.90372843
   0.94408055   0.95633144   0.96248619   1.05157248]
nelec by numeric integration = 146.00000162025643
    CPU time for vxc     37.91 sec, wall time     15.71 sec
E1 = -4114.948767125519  Ecoul = 1902.5317307012733  Exc = -124.66792302670504
cycle= 13 E= -835.413442904907  delta_E= -3.44e-09  |g|= 2.65e-05  |ddm|= 0.00014
    CPU time for cycle= 13     38.45 sec, wall time     15.79 sec
  HOMO = -0.0965491964067859  LUMO = -0.0257591817285302
  mo_energy =
[-10.06000771 -10.05787182 -10.02562199 -10.02460841 -10.02129218
 -10.02029097 -10.01913451 -10.0187678  -10.01597743 -10.01582376
 -10.01208945 -10.01093245 -10.01039619 -10.00983092 -10.00750516
 -10.00439225 -10.0038914   -9.99929955  -9.99870533  -9.99689865
  -9.99512733  -9.98906326  -0.88840317  -0.84615013  -0.84080993
  -0.79670133  -0.76212808  -0.74637308  -0.7324391   -0.7158048
  -0.6998718   -0.67465681  -0.64454004  -0.6369221   -0.60823753
  -0.59368516  -0.5675919   -0.561564    -0.53582565  -0.5121564
  -0.48569752  -0.47712999  -0.473701    -0.46403503  -0.44580609
  -0.43654305  -0.4346767   -0.42212739  -0.3992459   -0.39646888
  -0.37927757  -0.37509961  -0.36263961  -0.35969892  -0.35527896
  -0.34400733  -0.34074156  -0.33463154  -0.31351758  -0.29822892
  -0.29172089  -0.27189815  -0.25680598  -0.25547773  -0.24430066
  -0.23785015  -0.22124603  -0.21282412  -0.19997887  -0.19715371
  -0.18690194  -0.14577644  -0.0965492   -0.02575918   0.01666669
   0.05630691   0.08314523   0.10663489   0.14185177   0.1587644
   0.20537819   0.21698517   0.22470279   0.24251486   0.2499608
   0.26410912   0.27260407   0.28562546   0.3008108    0.30881462
   0.31038474   0.32188251   0.32950512   0.34208676   0.36099185
   0.37637759   0.38168217   0.40198557   0.41296941   0.42053897
   0.42407492   0.43459954   0.47343522   0.5106463    0.51551794
   0.54516716   0.550843     0.59104111   0.62738316   0.6467987
   0.67317923   0.69589355   0.71286551   0.78256559   0.7919042
   0.80508474   0.8434801    0.85425797   0.87068995   0.90372991
   0.94408199   0.9563309    0.96248508   1.05157144]
nelec by numeric integration = 146.00000162025725
    CPU time for vxc     37.71 sec, wall time     15.67 sec
E1 = -4114.948808785521  Ecoul = 1902.5317738777637  Exc = -124.66792454338902
cycle= 14 E= -835.413442905103  delta_E= -1.95e-10  |g|= 1.19e-05  |ddm|= 3.56e-05
    CPU time for cycle= 14     38.03 sec, wall time     15.72 sec
  HOMO = -0.0965490890708851  LUMO = -0.025759145723726
  mo_energy =
[-10.06000738 -10.0578716  -10.02562122 -10.02460828 -10.02129326
 -10.02029138 -10.01913422 -10.01876753 -10.0159781  -10.01582387
 -10.01209129 -10.01093157 -10.01039454 -10.00983203 -10.00750452
 -10.00439226 -10.00389089  -9.99929993  -9.99870514  -9.99689788
  -9.99512711  -9.9890633   -0.88840293  -0.84615044  -0.84080971
  -0.79670169  -0.76212789  -0.74637309  -0.73243893  -0.71580478
  -0.69987165  -0.67465677  -0.64453977  -0.63692225  -0.60823753
  -0.59368501  -0.56759195  -0.56156392  -0.53582577  -0.51215632
  -0.48569766  -0.47712987  -0.47370074  -0.46403498  -0.44580617
  -0.43654314  -0.43467654  -0.42212734  -0.39924581  -0.39646896
  -0.37927744  -0.37509946  -0.36263979  -0.35969874  -0.35527917
  -0.34400719  -0.34074144  -0.33463195  -0.31351753  -0.29822906
  -0.29172107  -0.27189809  -0.25680591  -0.2554777   -0.24430072
  -0.23785008  -0.22124619  -0.21282394  -0.19997887  -0.19715361
  -0.18690182  -0.14577645  -0.09654909  -0.02575915   0.01666679
   0.05630694   0.08314518   0.1066351    0.14185198   0.15876433
   0.205378     0.2169852    0.22470287   0.24251454   0.24996085
   0.26410927   0.27260391   0.28562549   0.30081089   0.30881453
   0.31038473   0.32188246   0.32950506   0.34208682   0.36099215
   0.3763771    0.3816824    0.40198568   0.41296922   0.42053911
   0.42407483   0.43459961   0.47343532   0.51064648   0.51551812
   0.54516732   0.55084319   0.59104082   0.62738311   0.64679821
   0.67317943   0.69589349   0.71286554   0.78256596   0.7919043
   0.8050851    0.84348027   0.8542579    0.87068926   0.90373013
   0.9440822    0.95633124   0.96248463   1.05157173]
nelec by numeric integration = 146.00000162025756
    CPU time for vxc     37.78 sec, wall time     15.69 sec
E1 = -4114.948818164118  Ecoul = 1902.531782993224  Exc = -124.66792428029802
cycle= 15 E= -835.413442905148  delta_E= -4.59e-11  |g|= 6.07e-06  |ddm|= 1.64e-05
    CPU time for cycle= 15     38.49 sec, wall time     15.79 sec
  HOMO = -0.0965492433909522  LUMO = -0.0257596634394169
  mo_energy =
[-10.0600079  -10.05787262 -10.02562034 -10.02460847 -10.02129283
 -10.02029414 -10.01913329 -10.01877182 -10.01597848 -10.01582446
 -10.01209101 -10.01093074 -10.01039677 -10.0098315  -10.00750442
 -10.004392   -10.00389055  -9.99929952  -9.99870407  -9.99689581
  -9.99512785  -9.98906028  -0.88840333  -0.84615049  -0.84080924
  -0.79670178  -0.76212825  -0.74637317  -0.7324387   -0.71580487
  -0.69987117  -0.67465705  -0.64453929  -0.63692272  -0.60823809
  -0.59368539  -0.56759201  -0.56156381  -0.53582595  -0.51215606
  -0.48569773  -0.47712998  -0.47370048  -0.46403539  -0.44580609
  -0.43654336  -0.43467573  -0.42212772  -0.39924617  -0.39646938
  -0.37927695  -0.37509942  -0.36263983  -0.35969894  -0.35527909
  -0.34400722  -0.34074211  -0.33463218  -0.31351777  -0.2982293
  -0.29172123  -0.27189783  -0.25680554  -0.2554778   -0.24430106
  -0.23785005  -0.22124646  -0.21282387  -0.19997893  -0.19715344
  -0.18690154  -0.14577678  -0.09654924  -0.02575966   0.01666632
   0.05630643   0.08314521   0.10663529   0.14185251   0.15876433
   0.2053778    0.21698507   0.22470291   0.24251429   0.2499601
   0.26410957   0.27260351   0.28562539   0.3008107    0.30881342
   0.31038465   0.32188211   0.32950482   0.34208622   0.36099233
   0.37637681   0.38168309   0.40198597   0.41296923   0.42053952
   0.42407503   0.43459968   0.47343489   0.5106461    0.51551866
   0.54516704   0.55084283   0.59104038   0.62738239   0.64679824
   0.67317976   0.69589362   0.71286542   0.78256697   0.79190427
   0.8050845    0.84348156   0.8542575    0.87068916   0.90373069
   0.94408272   0.95633123   0.96248457   1.05157127]
nelec by numeric integration = 146.00000162025424
    CPU time for vxc     38.09 sec, wall time     15.85 sec
E1 = -4114.948850298822  Ecoul = 1902.531814629592  Exc = -124.6679237817658
Extra cycle  E= -835.413442904953  delta_E= 1.96e-10  |g|= 2.29e-05  |ddm|= 5.01e-05
    CPU time for scf_cycle    663.56 sec, wall time    271.45 sec
    CPU time for SCF    663.56 sec, wall time    271.45 sec
converged SCF energy = -835.413442904953
nelec by numeric integration = 146.00000162025424
    CPU time for vxc     38.33 sec, wall time     15.86 sec
 ** Mulliken pop  **
pop of  0 C 1s            1.99144
pop of  0 C 2s            1.17856
pop of  0 C 2px           0.95601
pop of  0 C 2py           0.95202
pop of  0 C 2pz           0.91258
pop of  1 C 1s            1.99149
pop of  1 C 2s            1.17631
pop of  1 C 2px           0.99277
pop of  1 C 2py           0.91832
pop of  1 C 2pz           0.92197
pop of  2 C 1s            1.99144
pop of  2 C 2s            1.16487
pop of  2 C 2px           1.04008
pop of  2 C 2py           0.93768
pop of  2 C 2pz           1.01889
pop of  3 C 1s            1.99064
pop of  3 C 2s            1.12727
pop of  3 C 2px           1.07405
pop of  3 C 2py           0.92244
pop of  3 C 2pz           0.97087
pop of  4 C 1s            1.99073
pop of  4 C 2s            1.07238
pop of  4 C 2px           1.00326
pop of  4 C 2py           1.01217
pop of  4 C 2pz           1.01222
pop of  5 C 1s            1.99194
pop of  5 C 2s            1.26516
pop of  5 C 2px           0.90853
pop of  5 C 2py           0.90776
pop of  5 C 2pz           0.92007
pop of  6 C 1s            1.99053
pop of  6 C 2s            1.06898
pop of  6 C 2px           1.03960
pop of  6 C 2py           1.02187
pop of  6 C 2pz           0.99369
pop of  7 C 1s            1.99137
pop of  7 C 2s            1.16566
pop of  7 C 2px           0.94942
pop of  7 C 2py           0.96774
pop of  7 C 2pz           0.93882
pop of  8 C 1s            1.99045
pop of  8 C 2s            0.96540
pop of  8 C 2px           1.03185
pop of  8 C 2py           1.04155
pop of  8 C 2pz           1.04299
pop of  9 C 1s            1.99051
pop of  9 C 2s            1.01991
pop of  9 C 2px           1.03223
pop of  9 C 2py           0.98810
pop of  9 C 2pz           1.00774
pop of  10 C 1s           1.99195
pop of  10 C 2s           1.13858
pop of  10 C 2px          0.95732
pop of  10 C 2py          0.91292
pop of  10 C 2pz          0.99830
pop of  11 C 1s           1.99159
pop of  11 C 2s           1.22284
pop of  11 C 2px          0.95780
pop of  11 C 2py          0.90323
pop of  11 C 2pz          0.94777
pop of  12 C 1s           1.99165
pop of  12 C 2s           1.23326
pop of  12 C 2px          0.93400
pop of  12 C 2py          0.92867
pop of  12 C 2pz          0.92656
pop of  13 C 1s           1.99095
pop of  13 C 2s           1.13346
pop of  13 C 2px          0.98074
pop of  13 C 2py          0.95559
pop of  13 C 2pz          0.96426
pop of  14 C 1s           1.99147
pop of  14 C 2s           1.17024
pop of  14 C 2px          1.02202
pop of  14 C 2py          0.93798
pop of  14 C 2pz          1.01705
pop of  15 C 1s           1.99073
pop of  15 C 2s           1.09787
pop of  15 C 2px          1.01400
pop of  15 C 2py          0.98286
pop of  15 C 2pz          0.99264
pop of  16 C 1s           1.99112
pop of  16 C 2s           1.15372
pop of  16 C 2px          0.98618
pop of  16 C 2py          0.94175
pop of  16 C 2pz          0.92608
pop of  17 C 1s           1.99081
pop of  17 C 2s           1.06712
pop of  17 C 2px          1.00516
pop of  17 C 2py          1.00770
pop of  17 C 2pz          0.93723
pop of  18 C 1s           1.99095
pop of  18 C 2s           1.11061
pop of  18 C 2px          0.99477
pop of  18 C 2py          0.98172
pop of  18 C 2pz          0.99161
pop of  19 C 1s           1.99095
pop of  19 C 2s           1.14022
pop of  19 C 2px          1.02218
pop of  19 C 2py          0.94486
pop of  19 C 2pz          0.95800
pop of  20 C 1s           1.99071
pop of  20 C 2s           1.13752
pop of  20 C 2px          0.98228
pop of  20 C 2py          0.97244
pop of  20 C 2pz          0.99158
pop of  21 C 1s           1.99066
pop of  21 C 2s           1.13003
pop of  21 C 2px          0.99458
pop of  21 C 2py          0.97991
pop of  21 C 2pz          0.98792
pop of  22 H 1s           0.89227
pop of  23 H 1s           0.91209
pop of  24 H 1s           0.91993
pop of  25 H 1s           0.94688
pop of  26 H 1s           0.91021
pop of  27 H 1s           0.95850
pop of  28 H 1s           0.88979
pop of  29 H 1s           0.89582
pop of  30 H 1s           0.88650
pop of  31 H 1s           0.93150
pop of  32 H 1s           0.94768
pop of  33 H 1s           0.95768
pop of  34 H 1s           0.90995
pop of  35 H 1s           0.92023
 ** Mulliken atomic charges  **
charge of    0C =      0.00940
charge of    1C =     -0.00086
charge of    2C =     -0.15296
charge of    3C =     -0.08527
charge of    4C =     -0.09076
charge of    5C =      0.00655
charge of    6C =     -0.11466
charge of    7C =     -0.01301
charge of    8C =     -0.07223
charge of    9C =     -0.03848
charge of   10C =      0.00093
charge of   11C =     -0.02323
charge of   12C =     -0.01415
charge of   13C =     -0.02500
charge of   14C =     -0.13876
charge of   15C =     -0.07809
charge of   16C =      0.00116
charge of   17C =     -0.00802
charge of   18C =     -0.06966
charge of   19C =     -0.05621
charge of   20C =     -0.07454
charge of   21C =     -0.08311
charge of   22H =      0.10773
charge of   23H =      0.08791
charge of   24H =      0.08007
charge of   25H =      0.05312
charge of   26H =      0.08979
charge of   27H =      0.04150
charge of   28H =      0.11021
charge of   29H =      0.10418
charge of   30H =      0.11350
charge of   31H =      0.06850
charge of   32H =      0.05232
charge of   33H =      0.04232
charge of   34H =      0.09005
charge of   35H =      0.07977
Dipole moment(X, Y, Z, Debye):  0.11274, -0.43389, -0.28955
nelec by numeric integration = 146.00000162025424
    CPU time for vxc     37.68 sec, wall time     15.72 sec
E1 = -4114.948850298822  Ecoul = 1902.5318146295926  Exc = -124.66792378176581
nelec by numeric integration = 146.00000162025424
    CPU time for vxc     37.54 sec, wall time     15.75 sec
E1 = -4114.948850298822  Ecoul = 1902.5318146295924  Exc = -124.6679237817658
