System: uname_result(system='Linux', node='cosmopc18', release='5.15.0-97-generic', version='#107-Ubuntu SMP Wed Feb 7 13:26:48 UTC 2024', machine='x86_64')  Threads 4
Python 3.11.8 (main, Feb 26 2024, 21:39:34) [GCC 11.2.0]
numpy 1.26.4  scipy 1.11.4
Date: Tue Apr  9 12:37:11 2024
PySCF version 2.3.0
PySCF path  /home/saade/miniconda3/envs/tutorial/lib/python3.11/site-packages/pyscf

[ENV] PYSCFAD_BACKEND torch
[CONFIG] conf_file None
[INPUT] verbose = 5
[INPUT] max_memory = 4000 
[INPUT] num. atoms = 36
[INPUT] num. electrons = 146
[INPUT] charge = 0
[INPUT] spin (= nelec alpha-beta = 2S) = 0
[INPUT] symmetry False subgroup None
[INPUT] Mole.unit = angstrom
[INPUT] Symbol           X                Y                Z      unit          X                Y                Z       unit  Magmom
[INPUT]  1 C     -0.056659000000   3.835540000000   0.728919000000 AA   -0.107069992492   7.248120139814   1.377457276992 Bohr   0.0
[INPUT]  2 C      0.232835000000   3.866425000000  -0.895587000000 AA    0.439994382213   7.306484331171  -1.692414150721 Bohr   0.0
[INPUT]  3 C      0.018501000000   4.892399000000   1.558059000000 AA    0.034961823031   9.245294202096   2.944304795914 Bohr   0.0
[INPUT]  4 C      0.028703000000   2.360212000000   1.583245000000 AA    0.054240808953   4.460154275912   2.991899438087 Bohr   0.0
[INPUT]  5 C     -0.015148000000   4.865989000000  -1.364885000000 AA   -0.028625571335   9.195386535146  -2.579258841527 Bohr   0.0
[INPUT]  6 C      0.154813000000   2.511518000000  -1.303049000000 AA    0.292554170522   4.746081176915  -2.462405736888 Bohr   0.0
[INPUT]  7 C     -0.013808000000   6.119872000000  -0.726985000000 AA   -0.026093338328  11.564881997394  -1.373802546667 Bohr   0.0
[INPUT]  8 C      0.174462000000   6.035346000000   0.622598000000 AA    0.329685399144  11.405151006989   1.176539705702 Bohr   0.0
[INPUT]  9 C      0.046812000000   1.210797000000   0.821354000000 AA    0.088461859343   2.288074722445   1.552134111316 Bohr   0.0
[INPUT] 10 C      0.128317000000   1.311671000000  -0.805596000000 AA    0.242483987126   2.478698955534  -1.522355807045 Bohr   0.0
[INPUT] 11 C     -0.004634000000   0.153533000000   1.214711000000 AA   -0.008756990861   0.290135321083   2.295471110497 Bohr   0.0
[INPUT] 12 C     -0.046165000000  -0.013347000000  -1.520087000000 AA   -0.087239206541  -0.025222174585  -2.872548115512 Bohr   0.0
[INPUT] 13 C     -0.012591000000  -1.100447000000   0.880789000000 AA   -0.023793541634  -2.079543444599   1.664449983530 Bohr   0.0
[INPUT] 14 C     -0.098759000000  -1.203208000000  -0.712624000000 AA   -0.186627462336  -2.273733590886  -1.346664189792 Bohr   0.0
[INPUT] 15 C      0.024785000000  -2.457497000000   1.364050000000 AA    0.046836861997  -4.643996281940   2.577680920213 Bohr   0.0
[INPUT] 16 C     -0.030295000000  -2.502326000000  -1.381290000000 AA   -0.057249252944  -4.728710814378  -2.610259798600 Bohr   0.0
[INPUT] 17 C      0.083278000000  -3.709179000000   0.775421000000 AA    0.157372612202  -7.009332456988   1.465333321236 Bohr   0.0
[INPUT] 18 C     -0.033949000000  -3.606376000000  -0.665087000000 AA   -0.064154312203  -6.815062942204  -1.256832279009 Bohr   0.0
[INPUT] 19 C      0.055570000000  -4.971044000000   1.330888000000 AA    0.105012080742  -9.393911713162   2.515013822470 Bohr   0.0
[INPUT] 20 C      0.140440000000  -4.952584000000  -1.534238000000 AA    0.265393136934  -9.359027368903  -2.899289629900 Bohr   0.0
[INPUT] 21 C      0.001783000000  -6.047439000000   0.539229000000 AA    0.003369381680 -11.428003465014   1.018995128423 Bohr   0.0
[INPUT] 22 C     -0.128090000000  -6.031524000000  -0.741999000000 AA   -0.242055019296 -11.397928473741  -1.402174894701 Bohr   0.0
[INPUT] 23 H     -0.202538000000   4.894792000000   2.607659000000 AA   -0.382741349817   9.249816316712   4.927761336257 Bohr   0.0
[INPUT] 24 H      0.106102000000   2.551166000000   2.547594000000 AA    0.200503721269   4.821005038302   4.814254936585 Bohr   0.0
[INPUT] 25 H     -0.103643000000   5.191868000000  -2.690587000000 AA   -0.195856884728   9.811208594893  -5.084472544315 Bohr   0.0
[INPUT] 26 H     -0.086030000000   2.274009000000  -2.504543000000 AA   -0.162573138496   4.297254214796  -4.732900337197 Bohr   0.0
[INPUT] 27 H      0.057430000000   7.235997000000  -1.254255000000 AA    0.108526971334  13.674052568174  -2.370198440366 Bohr   0.0
[INPUT] 28 H      0.028823000000   7.175537000000   1.148182000000 AA    0.054467576088  13.559799726683   2.169749521155 Bohr   0.0
[INPUT] 29 H      0.020270000000   0.052106000000   2.439646000000 AA    0.038304748545   0.098466069447   4.610262780891 Bohr   0.0
[INPUT] 30 H      0.073941000000   0.218283000000  -2.474952000000 AA    0.139728239376   0.412495087648  -4.676981451445 Bohr   0.0
[INPUT] 31 H      0.043404000000  -2.403480000000   2.526606000000 AA    0.082021672711  -4.541918945870   4.774593364683 Bohr   0.0
[INPUT] 32 H      0.009421000000  -2.269005000000  -2.440452000000 AA    0.017803109820  -4.287798025269  -4.611785900147 Bohr   0.0
[INPUT] 33 H     -0.038608000000  -4.860866000000   2.352273000000 AA   -0.072958546217  -9.185705468210   4.445151740209 Bohr   0.0
[INPUT] 34 H      0.100161000000  -4.679285000000  -2.539073000000 AA    0.189276858363  -8.842567108785  -4.798152580278 Bohr   0.0
[INPUT] 35 H     -0.008694000000  -7.015169000000   1.104383000000 AA   -0.016429278927 -13.256748127539   2.086981406626 Bohr   0.0
[INPUT] 36 H     -0.042614000000  -7.105951000000  -1.322958000000 AA   -0.080528789072 -13.428301244579  -2.500028294302 Bohr   0.0
[INPUT] ---------------- BASIS SET ---------------- 
[INPUT] l, kappa, [nprim/nctr], expnt,             c_1 c_2 ...
[INPUT] H
[INPUT] 0    0    [3    /1   ]  3.42525091        0.15432897
                                0.62391373        0.53532814
                                0.1688554         0.44463454
[INPUT] C
[INPUT] 0    0    [3    /1   ]  71.616837         0.15432897
                                13.045096         0.53532814
                                3.5305122         0.44463454
[INPUT] 0    0    [3    /1   ]  2.9412494         -0.09996723
                                0.6834831         0.39951283
                                0.2222899         0.70011547
[INPUT] 1    0    [3    /1   ]  2.9412494         0.15591627
                                0.6834831         0.60768372
                                0.2222899         0.39195739

nuclear repulsion = 1491.28647771616
number of shells = 80
number of NR pGTOs = 372
number of NR cGTOs = 124
basis = sto3g
ecp = {}
CPU time:     25695.37
atom C rad-grids = 99, ang-grids = [ 50  50  50  50  50  50  50  50  50  50  50  50  50  50  50  50  50  50
  50  50  50  50  50  50  50  50  50  50  50  50  50  86  86  86  86  86
  86  86  86  86  86  86  86 434 434 434 434 434 434 434 434 434 590 590
 590 590 590 590 590 590 590 590 590 590 590 590 590 590 590 590 590 590
 590 590 590 590 590 590 590 434 434 434 434 434 434 434 434 434 434 434
 434 434 434 434 434 434 434 434 434]
atom H rad-grids = 99, ang-grids = [ 50  50  50  50  50  50  50  50  50  50  50  50  50  50  50  50  50  50
  50  50  50  50  50  50  50  50  50  50  86  86  86  86  86  86  86 434
 434 434 434 434 434 434 434 590 590 590 590 590 590 590 590 590 590 590
 590 590 590 590 590 590 590 590 590 590 590 590 590 590 590 434 434 434
 434 434 434 434 434 434 434 434 434 434 434 434 434 434 434 434 434 434
 434 434 434 434 434 434 434 434 434]
tot_boxes 5440, boxes in each direction [ 8 30 15]
Padding 0 grids
tot grids = 1157832


******** <class 'pyscf.dft.rks.RKS'> ********
method = RKS
initial guess = minao
damping factor = 0
level_shift factor = 0
DIIS = <class 'pyscf.scf.diis.CDIIS'>
diis_start_cycle = 1
diis_space = 8
SCF conv_tol = 1e-10
SCF conv_tol_grad = None
SCF max_cycles = 50
direct_scf = True
direct_scf_tol = 1e-13
chkfile to save SCF result = /home/saade/mlelec/tutorials/tmpgzvfu6si
max_memory 4000 MB (current use 637 MB)
XC library pyscf.dft.libxc version 6.1.0
    S. Lehtola, C. Steigemann, M. J.T. Oliveira, and M. A.L. Marques.,  SoftwareX 7, 1–5 (2018)
XC functionals = b3lypg
    P. J. Stephens, F. J. Devlin, C. F. Chabalowski, and M. J. Frisch.,  J. Phys. Chem. 98, 11623 (1994)
radial grids: 
    Treutler-Ahlrichs [JCP 102, 346 (1995); DOI:10.1063/1.469408] (M4) radial grids
    
becke partition: Becke, JCP 88, 2547 (1988); DOI:10.1063/1.454033
pruning grids: <function nwchem_prune at 0x7f9db5616ca0>
grids dens level: 3
symmetrized grids: False
atomic radii adjust function: <function treutler_atomic_radii_adjust at 0x7f9db5617380>
User specified grid scheme (99, 590)
small_rho_cutoff = 1e-07
Set gradient conv threshold to 1e-05
Initial guess from minao.
nelec by numeric integration = 145.27091039329756
    CPU time for vxc     37.09 sec, wall time     15.55 sec
E1 = -4082.9021721147037  Ecoul = 1876.2807795261535  Exc = -125.96310020330091
init E= -841.298015075693
cond(S) = 25.88084851332047
    CPU time for initialize scf     46.18 sec, wall time     17.79 sec
  HOMO = -0.202208309455337  LUMO = -0.160073368248995
  mo_energy =
[-1.01683492e+01 -1.01544705e+01 -1.01424669e+01 -1.01335251e+01
 -1.01085090e+01 -1.01061097e+01 -1.01060954e+01 -1.01059606e+01
 -1.01044103e+01 -1.01041117e+01 -1.00992420e+01 -1.00984378e+01
 -1.00979059e+01 -1.00963061e+01 -1.00938225e+01 -1.00922851e+01
 -1.00907551e+01 -1.00862922e+01 -1.00822329e+01 -1.00808370e+01
 -1.00748971e+01 -1.00740107e+01 -1.09674320e+00 -1.06766324e+00
 -1.05738581e+00 -9.85214533e-01 -9.58911751e-01 -9.26238572e-01
 -9.15021257e-01 -9.01889421e-01 -8.60549091e-01 -8.41810654e-01
 -7.92794646e-01 -7.79476423e-01 -7.26124808e-01 -6.99796715e-01
 -6.78025722e-01 -6.71270729e-01 -6.44489510e-01 -6.38057333e-01
 -6.02182052e-01 -5.87493184e-01 -5.69750162e-01 -5.51063527e-01
 -5.47948402e-01 -5.18789597e-01 -5.08311412e-01 -4.96357317e-01
 -4.93293526e-01 -4.84569410e-01 -4.71569741e-01 -4.64651877e-01
 -4.56591349e-01 -4.55399154e-01 -4.47177926e-01 -4.40764541e-01
 -4.28318397e-01 -4.15108802e-01 -4.13832974e-01 -3.94628598e-01
 -3.78609362e-01 -3.64319347e-01 -3.50721588e-01 -3.35894972e-01
 -3.28184358e-01 -3.20902667e-01 -3.16416549e-01 -3.04840613e-01
 -3.02203419e-01 -2.84230748e-01 -2.67013791e-01 -2.53154736e-01
 -2.02208309e-01 -1.60073368e-01 -9.48487447e-02 -6.91403666e-02
 -3.82472540e-02 -2.83243818e-02 -2.25483707e-03  3.48874020e-02
  4.34523029e-02  4.99372969e-02  7.88489785e-02  1.18095833e-01
  1.35922430e-01  1.39480451e-01  1.46634754e-01  1.52336232e-01
  1.66631447e-01  1.83706248e-01  1.84211723e-01  2.00256489e-01
  2.21952870e-01  2.25194602e-01  2.39987411e-01  2.55602802e-01
  2.63273268e-01  2.79706705e-01  2.95554576e-01  3.03391617e-01
  3.08778115e-01  3.33860359e-01  3.44518180e-01  3.72802202e-01
  3.97257433e-01  4.24296621e-01  4.36012845e-01  4.53465870e-01
  4.57164100e-01  4.66239485e-01  5.09767452e-01  5.27672314e-01
  5.41445861e-01  5.52355604e-01  5.71628860e-01  5.84761760e-01
  6.11171844e-01  6.41051588e-01  6.86531288e-01  7.05181166e-01
  7.35729470e-01  7.37526931e-01  9.49643381e-01  9.81072231e-01]
nelec by numeric integration = 146.00000125116995
    CPU time for vxc     38.37 sec, wall time     15.84 sec
E1 = -4098.520247342936  Ecoul = 1896.2116885738271  Exc = -124.6281451576603
cycle= 1 E= -835.650226210611  delta_E= 5.65  |g|= 0.296  |ddm|= 9.31
    CPU time for cycle= 1     38.70 sec, wall time     15.90 sec
  HOMO = -0.0707126064157598  LUMO = -0.00317879967248016
  mo_energy =
[-1.00211339e+01 -1.00194707e+01 -1.00180674e+01 -1.00171000e+01
 -1.00085895e+01 -1.00077583e+01 -1.00071472e+01 -1.00015520e+01
 -9.99901074e+00 -9.99332748e+00 -9.99244144e+00 -9.98646554e+00
 -9.98089956e+00 -9.97268930e+00 -9.97058263e+00 -9.96401740e+00
 -9.95994219e+00 -9.95897397e+00 -9.94964798e+00 -9.94776576e+00
 -9.92732097e+00 -9.90019934e+00 -8.26372970e-01 -8.25489476e-01
 -7.83334965e-01 -7.54716366e-01 -7.41177457e-01 -7.26734384e-01
 -7.11176607e-01 -6.95957430e-01 -6.74091401e-01 -6.61454866e-01
 -6.15148692e-01 -6.12451163e-01 -5.75641491e-01 -5.51206657e-01
 -5.37783204e-01 -5.25444877e-01 -5.20576332e-01 -4.97762086e-01
 -4.75757913e-01 -4.68368662e-01 -4.45182564e-01 -4.42696373e-01
 -4.20491881e-01 -4.13237164e-01 -4.01024113e-01 -3.97269769e-01
 -3.80991862e-01 -3.68827296e-01 -3.64552440e-01 -3.56824247e-01
 -3.42611140e-01 -3.39009564e-01 -3.37152054e-01 -3.26748035e-01
 -3.18425864e-01 -3.04301485e-01 -2.97951297e-01 -2.92909985e-01
 -2.57399457e-01 -2.55803112e-01 -2.49643006e-01 -2.34002910e-01
 -2.32425760e-01 -2.25331960e-01 -2.08188806e-01 -2.01592043e-01
 -1.85485318e-01 -1.62548204e-01 -1.52794243e-01 -1.37930771e-01
 -7.07126064e-02 -3.17879967e-03  5.58166449e-02  7.53340304e-02
  1.15933587e-01  1.22374288e-01  1.50120523e-01  1.76362330e-01
  1.98663117e-01  2.16459821e-01  2.45761540e-01  2.60889644e-01
  2.63664781e-01  2.86501782e-01  2.99056957e-01  3.06464049e-01
  3.28008241e-01  3.38054039e-01  3.44247521e-01  3.65277466e-01
  3.82647049e-01  3.87865069e-01  3.91661974e-01  4.04842120e-01
  4.20298283e-01  4.24483058e-01  4.41754496e-01  4.49748003e-01
  4.56809097e-01  4.71554181e-01  4.97478384e-01  5.19219611e-01
  5.25158417e-01  5.73910726e-01  6.00795894e-01  6.10516030e-01
  6.13632546e-01  6.44009385e-01  6.66168993e-01  6.80122294e-01
  6.91850915e-01  6.92730918e-01  7.22968478e-01  7.35324760e-01
  7.67414841e-01  8.02405141e-01  8.42106471e-01  8.78556968e-01
  8.94818785e-01  9.39235611e-01  1.13189899e+00  1.23230825e+00]
nelec by numeric integration = 146.00000146136335
    CPU time for vxc     38.93 sec, wall time     15.98 sec
E1 = -4091.7920467128592  Ecoul = 1889.3161404366401  Exc = -124.46087752091412
cycle= 2 E= -835.650306080975  delta_E= -7.99e-05  |g|= 0.313  |ddm|= 0.987
    CPU time for cycle= 2     39.41 sec, wall time     16.06 sec
  HOMO = -0.100078523860091  LUMO = -0.02790460437532
  mo_energy =
[-10.05276086 -10.04927617 -10.03642694 -10.03544846 -10.02773588
 -10.01518802 -10.01518413 -10.01295921 -10.01291922 -10.011832
 -10.01159369 -10.00993384 -10.00875351 -10.00851895 -10.00576606
 -10.00484531 -10.00018356  -9.99957318  -9.99515364  -9.98821618
  -9.98330484  -9.98237545  -0.85593204  -0.84404309  -0.8286545
  -0.77795867  -0.76087125  -0.74138189  -0.73113672  -0.71926817
  -0.69468498  -0.67652949  -0.64183774  -0.62916699  -0.59461768
  -0.56842583  -0.55160311  -0.54602161  -0.52725474  -0.52202681
  -0.49454857  -0.48350165  -0.46783726  -0.45459018  -0.44887244
  -0.42136983  -0.41259448  -0.4065046   -0.40454972  -0.38297834
  -0.37459431  -0.3734839   -0.3660087   -0.35700403  -0.35549644
  -0.34531604  -0.33554819  -0.33449713  -0.32223479  -0.31039218
  -0.28068727  -0.27198481  -0.2640724   -0.24501786  -0.24267696
  -0.23874713  -0.22700306  -0.2207837   -0.20463011  -0.19694471
  -0.17541247  -0.1562146   -0.10007852  -0.0279046    0.04100685
   0.06124319   0.1020363    0.10382377   0.13586729   0.16394865
   0.17767156   0.19342451   0.21565949   0.25453725   0.26370982
   0.26869229   0.28042179   0.28270876   0.300026     0.32046724
   0.33174403   0.3362665    0.35346121   0.36643715   0.37375715
   0.39899079   0.40725894   0.40878872   0.43261415   0.43454857
   0.43872315   0.46537048   0.48048504   0.50775847   0.52239112
   0.55601106   0.57105709   0.59456232   0.59701601   0.60769743
   0.64784971   0.66396145   0.68176618   0.68690369   0.70707843
   0.72292046   0.74512358   0.78697831   0.8274718    0.84538516
   0.88026385   0.88213596   1.08749115   1.13449452]
nelec by numeric integration = 146.0000013359939
    CPU time for vxc     38.11 sec, wall time     15.82 sec
E1 = -4094.8669335735503  Ecoul = 1892.4117200287253  Exc = -124.51345928806575
cycle= 3 E= -835.682195116732  delta_E= -0.0319  |g|= 0.12  |ddm|= 0.652
    CPU time for cycle= 3     38.48 sec, wall time     15.88 sec
  HOMO = -0.101914713832017  LUMO = -0.0303433498676113
  mo_energy =
[-10.04653734 -10.0363657  -10.03125502 -10.02919061 -10.02682394
 -10.02427702 -10.02368554 -10.02054581 -10.01848843 -10.01786006
 -10.01491721 -10.0148471  -10.0142149  -10.01410686 -10.01355663
 -10.01253351 -10.01138452 -10.01071823 -10.01058027 -10.01022025
 -10.0086588   -9.98633092  -0.8516092   -0.84474328  -0.83385124
  -0.78519034  -0.7628028   -0.74532445  -0.73689414  -0.72400999
  -0.69601347  -0.68303295  -0.64032135  -0.63655743  -0.5959302
  -0.57426962  -0.5573427   -0.54582976  -0.52916039  -0.52378
  -0.49558812  -0.48623913  -0.46865518  -0.45834136  -0.44805269
  -0.42794559  -0.41740365  -0.4095049   -0.40523639  -0.38631435
  -0.38172038  -0.37250258  -0.36961295  -0.36045948  -0.35771323
  -0.34719533  -0.33806639  -0.33306721  -0.32997729  -0.31495759
  -0.28614426  -0.27699193  -0.26726754  -0.25248085  -0.24731185
  -0.24134609  -0.22633386  -0.2254243   -0.21017486  -0.19677106
  -0.17685185  -0.16307296  -0.10191471  -0.03034335   0.03456684
   0.05912678   0.09452964   0.10201157   0.13050663   0.16564753
   0.1733498    0.18540017   0.22123447   0.2542277    0.26056303
   0.26331086   0.27772988   0.28473345   0.2976405    0.32178274
   0.3267357    0.33671393   0.35384175   0.36221206   0.37279788
   0.39652809   0.40405614   0.40765586   0.42448004   0.43070944
   0.43244097   0.45883181   0.47112768   0.50492364   0.51809823
   0.55354988   0.57462076   0.58693935   0.59188351   0.60631327
   0.64651612   0.65870644   0.67149001   0.6809264    0.70165468
   0.71355172   0.74653582   0.77447363   0.82334518   0.84066669
   0.86683994   0.88595806   1.08947617   1.14954493]
nelec by numeric integration = 146.0000013524242
    CPU time for vxc     38.27 sec, wall time     15.80 sec
E1 = -4094.9889832781223  Ecoul = 1892.5437348744565  Exc = -124.52520512352794
cycle= 4 E= -835.683975811036  delta_E= -0.00178  |g|= 0.0978  |ddm|= 0.399
    CPU time for cycle= 4     38.71 sec, wall time     15.87 sec
  HOMO = -0.103250398583132  LUMO = -0.0317546138796565
  mo_energy =
[-10.04344742 -10.03168376 -10.03151404 -10.03044472 -10.02549539
 -10.0253841  -10.02390882 -10.02240448 -10.02024699 -10.01785489
 -10.0177473  -10.01707387 -10.01702635 -10.01409686 -10.01361737
 -10.01211323 -10.01040576 -10.01029876 -10.00680725 -10.00662011
 -10.00343205  -9.9990533   -0.85162435  -0.84409656  -0.8343711
  -0.78412531  -0.76139158  -0.74540577  -0.73725865  -0.72326172
  -0.69709768  -0.68166941  -0.64279125  -0.63501053  -0.59774527
  -0.57281719  -0.55670124  -0.54566399  -0.52978943  -0.52417751
  -0.49484663  -0.48699756  -0.46853212  -0.45720219  -0.45145331
  -0.42738889  -0.41658359  -0.4101371   -0.40614829  -0.38697367
  -0.37979148  -0.37214439  -0.36989113  -0.35911554  -0.35725375
  -0.34727946  -0.3382322   -0.33555672  -0.32657853  -0.31416009
  -0.28479355  -0.27695323  -0.26679083  -0.25086518  -0.24854303
  -0.24405304  -0.22763574  -0.22566236  -0.20980571  -0.19659392
  -0.17853294  -0.16215159  -0.1032504   -0.03175461   0.03452742
   0.058435     0.09583359   0.09980146   0.12964613   0.16591915
   0.17426477   0.18763646   0.21935813   0.25358742   0.26151081
   0.26352663   0.27813476   0.28125537   0.30065089   0.3205013
   0.32743101   0.33552803   0.35282254   0.36217168   0.37322728
   0.39529441   0.40362426   0.40695051   0.42558823   0.43198058
   0.43417077   0.46008608   0.47474792   0.50483498   0.51816136
   0.55284736   0.57174691   0.58755803   0.59076291   0.60687152
   0.64556473   0.66014537   0.67314359   0.67925013   0.7020983
   0.71392175   0.74137844   0.77740224   0.82329342   0.84278353
   0.86878946   0.88554513   1.09228771   1.14690615]
nelec by numeric integration = 146.0000013414294
    CPU time for vxc     38.16 sec, wall time     15.79 sec
E1 = -4094.9565659268073  Ecoul = 1892.5062450706196  Exc = -124.52388692102656
cycle= 5 E= -835.687730061056  delta_E= -0.00375  |g|= 0.0322  |ddm|= 0.249
    CPU time for cycle= 5     38.60 sec, wall time     15.86 sec
  HOMO = -0.102043199380384  LUMO = -0.0303466525961653
  mo_energy =
[-10.04605328 -10.03137829 -10.02990093 -10.02896515 -10.02815511
 -10.02370632 -10.02259961 -10.01825127 -10.01730802 -10.01724822
 -10.01660507 -10.01614076 -10.0148218  -10.01341383 -10.01262097
 -10.01005348 -10.00894512 -10.00810549 -10.00766471 -10.00247129
 -10.00101253 -10.00045082  -0.85129566  -0.84325592  -0.83324333
  -0.782908    -0.76146399  -0.74424054  -0.73641161  -0.7221097
  -0.69666338  -0.68111616  -0.64102645  -0.6346148   -0.59625426
  -0.57218659  -0.55603335  -0.54530997  -0.52904301  -0.52355377
  -0.49475187  -0.48608924  -0.4678623   -0.45633424  -0.44984062
  -0.42631862  -0.41589504  -0.40924923  -0.405697    -0.38633173
  -0.37878056  -0.37201802  -0.36942902  -0.35901198  -0.35683884
  -0.34705125  -0.33752248  -0.33487603  -0.32681819  -0.31396789
  -0.28419641  -0.27637371  -0.26651393  -0.24980211  -0.24717291
  -0.2426309   -0.22763507  -0.22498304  -0.20876482  -0.19678379
  -0.17800901  -0.16161015  -0.1020432   -0.03034665   0.03565187
   0.05898608   0.09698633   0.10091527   0.1307441    0.16531125
   0.17439477   0.18842272   0.21952792   0.25410002   0.26240087
   0.26426062   0.27873403   0.28216523   0.29949526   0.32147115
   0.32872317   0.33607988   0.35331758   0.36281356   0.37320758
   0.39665655   0.40498989   0.40735552   0.42679175   0.43276525
   0.43364227   0.46080444   0.47472576   0.50573972   0.51857857
   0.55433795   0.57367759   0.58868486   0.59172432   0.60710219
   0.64664793   0.66055979   0.67412464   0.68079903   0.70315675
   0.71492616   0.74356534   0.77882609   0.82424477   0.84228835
   0.87043932   0.88534025   1.09124264   1.14818563]
nelec by numeric integration = 146.000001351894
    CPU time for vxc     38.45 sec, wall time     15.90 sec
E1 = -4094.9226296467386  Ecoul = 1892.4693601295244  Exc = -124.5213186889778
cycle= 6 E= -835.688110490034  delta_E= -0.00038  |g|= 0.0116  |ddm|= 0.0701
    CPU time for cycle= 6     38.88 sec, wall time     15.97 sec
  HOMO = -0.101838760576083  LUMO = -0.0300609672541801
  mo_energy =
[-10.0455149  -10.03126014 -10.02987638 -10.02872253 -10.02608351
 -10.02318384 -10.02187733 -10.01861635 -10.01676555 -10.01622743
 -10.01529736 -10.01376088 -10.0134115  -10.01312122 -10.01209017
 -10.01011706 -10.00894814 -10.00845329 -10.00738757 -10.00338685
 -10.00180146  -9.99950785  -0.85101329  -0.84277061  -0.83298876
  -0.78251102  -0.76108499  -0.74392822  -0.73592475  -0.72194388
  -0.69605687  -0.68078158  -0.64076571  -0.63431897  -0.59598922
  -0.57192153  -0.55552887  -0.54513424  -0.52883189  -0.52325081
  -0.49447447  -0.48566832  -0.46766543  -0.45611927  -0.44984406
  -0.42608291  -0.41553024  -0.40914985  -0.40546215  -0.38566262
  -0.37868796  -0.37174522  -0.36919005  -0.3586424   -0.3563592
  -0.34667624  -0.33724435  -0.33480087  -0.3264505   -0.31356898
  -0.28388653  -0.27587638  -0.26622889  -0.2497073   -0.24698628
  -0.24248743  -0.22735459  -0.22459039  -0.20854032  -0.19648358
  -0.17751963  -0.16123133  -0.10183876  -0.03006097   0.03604452
   0.0593896    0.09718614   0.10130433   0.13123475   0.16556645
   0.17485114   0.18859516   0.21983582   0.25440381   0.26242533
   0.26432969   0.27911535   0.28248103   0.29993624   0.32177666
   0.32873807   0.33643401   0.35344158   0.36342861   0.37353371
   0.39686291   0.40524888   0.40778205   0.42703037   0.43291457
   0.4339303    0.46110308   0.47515261   0.50595689   0.51913169
   0.55446364   0.57360501   0.58901949   0.59255123   0.60749297
   0.64689889   0.66092274   0.6745737    0.68104232   0.70349879
   0.71559936   0.74377467   0.77907671   0.82473178   0.84293309
   0.87085196   0.88593413   1.09161939   1.14795651]
nelec by numeric integration = 146.00000134953873
    CPU time for vxc     38.08 sec, wall time     15.77 sec
E1 = -4094.8817294007367  Ecoul = 1892.4276372180507  Exc = -124.52054427575632
cycle= 7 E= -835.688158742284  delta_E= -4.83e-05  |g|= 0.00272  |ddm|= 0.0202
    CPU time for cycle= 7     38.64 sec, wall time     15.86 sec
  HOMO = -0.101796299602778  LUMO = -0.0299797546578749
  mo_energy =
[-10.04524892 -10.03145287 -10.02977729 -10.02913457 -10.02601167
 -10.02303944 -10.02188376 -10.01864867 -10.01691517 -10.0160524
 -10.01551598 -10.01422253 -10.01380714 -10.01316619 -10.01174841
 -10.00965112 -10.00875621 -10.00871791 -10.00719793 -10.00289968
 -10.00158329  -9.99942052  -0.85095213  -0.84281893  -0.83299111
  -0.78254445  -0.76099202  -0.74394815  -0.73593871  -0.72190446
  -0.69606082  -0.6807297   -0.64074149  -0.63426508  -0.59599589
  -0.57190547  -0.55559349  -0.54506072  -0.52880497  -0.52323512
  -0.49442205  -0.48569696  -0.46762806  -0.45611412  -0.44978261
  -0.42609781  -0.41551442  -0.40915653  -0.40540806  -0.38575882
  -0.37869678  -0.37167821  -0.3691812   -0.3586186   -0.35639402
  -0.34667103  -0.3372347   -0.3347421   -0.32638502  -0.3135917
  -0.28386179  -0.27589642  -0.26619944  -0.24970823  -0.24697406
  -0.24249648  -0.22727074  -0.22457763  -0.20852679  -0.19638788
  -0.1775021   -0.16119731  -0.1017963   -0.02997975   0.0360803
   0.05942886   0.09717857   0.10133933   0.13119044   0.16566104
   0.17489743   0.1886533    0.21994317   0.25440589   0.26240703
   0.26433946   0.2790888    0.28260216   0.30003467   0.32180943
   0.32876098   0.33646631   0.35344547   0.36336889   0.37358724
   0.39680332   0.40517727   0.40783409   0.42703014   0.43293167
   0.43401929   0.46108616   0.47515416   0.5059962    0.51907139
   0.55449295   0.57368456   0.58896283   0.59245278   0.60758771
   0.64696674   0.66096047   0.67453504   0.68101626   0.70349299
   0.7155131    0.74382159   0.77903986   0.82476761   0.84301533
   0.87076745   0.88601513   1.09168601   1.14801953]
nelec by numeric integration = 146.00000134954982
    CPU time for vxc     37.58 sec, wall time     15.64 sec
E1 = -4094.8832669922067  Ecoul = 1892.429205036184  Exc = -124.5205770085605
cycle= 8 E= -835.688161248425  delta_E= -2.51e-06  |g|= 0.000808  |ddm|= 0.00498
    CPU time for cycle= 8     38.35 sec, wall time     15.76 sec
  HOMO = -0.101845225433627  LUMO = -0.029997470802055
  mo_energy =
[-10.045273   -10.03147096 -10.02973888 -10.02904413 -10.0259948
 -10.02309554 -10.02192986 -10.01862755 -10.01688578 -10.01619562
 -10.01544397 -10.01412129 -10.01379872 -10.013288   -10.01179467
 -10.00978458 -10.00877936 -10.00860248 -10.00714336 -10.00307474
 -10.0016309   -9.9995264   -0.85096885  -0.8428196   -0.83299236
  -0.78254905  -0.76100748  -0.74395692  -0.73594999  -0.72191588
  -0.69607314  -0.68074616  -0.64076558  -0.63429019  -0.5960137
  -0.57191123  -0.55559106  -0.54507447  -0.52883288  -0.52324198
  -0.49444019  -0.48570673  -0.4676395   -0.45613612  -0.44980736
  -0.4261062   -0.41553216  -0.40916573  -0.40542801  -0.38575288
  -0.3787024   -0.37168994  -0.36918039  -0.35863346  -0.35639242
  -0.34667391  -0.33723347  -0.33476487  -0.32640526  -0.31357733
  -0.28386724  -0.27589817  -0.266199    -0.24971107  -0.24698781
  -0.2425028   -0.22728192  -0.2245967   -0.20853497  -0.19637833
  -0.17751616  -0.16121972  -0.10184523  -0.02999747   0.03606453
   0.05942249   0.0971765    0.10131224   0.13118417   0.16565645
   0.17488407   0.18864064   0.21995055   0.25440571   0.26240122
   0.26432999   0.27909071   0.28256492   0.30003674   0.32180094
   0.32874286   0.33646881   0.3534579    0.36338215   0.3735737
   0.39680508   0.40518234   0.40781334   0.42700883   0.43290947
   0.43401234   0.46107356   0.47515264   0.50596336   0.51906877
   0.5544631    0.57365789   0.58896078   0.59245579   0.60756265
   0.64693972   0.66093721   0.67453052   0.68102318   0.7034726
   0.7155003    0.74378247   0.77904052   0.82474538   0.84299414
   0.87077083   0.88600749   1.0916646    1.14803451]
nelec by numeric integration = 146.00000134941178
    CPU time for vxc     37.93 sec, wall time     15.67 sec
E1 = -4094.884465553768  Ecoul = 1892.430466411258  Exc = -124.52064006619906
cycle= 9 E= -835.688161492551  delta_E= -2.44e-07  |g|= 0.000325  |ddm|= 0.00166
    CPU time for cycle= 9     38.43 sec, wall time     15.75 sec
  HOMO = -0.10184692643894  LUMO = -0.0299932020356863
  mo_energy =
[-10.04526763 -10.03140522 -10.02974823 -10.02907903 -10.02606749
 -10.02312209 -10.02194159 -10.01864111 -10.01689469 -10.01613785
 -10.01550874 -10.01412879 -10.01377204 -10.01327843 -10.01180169
 -10.00979356 -10.0087665  -10.00864654 -10.00721197 -10.00305047
 -10.00164802  -9.99946879  -0.85096329  -0.84282792  -0.8330065
  -0.78256679  -0.7610024   -0.74395765  -0.73595628  -0.72192255
  -0.6960784   -0.68075219  -0.64076721  -0.63429359  -0.59602467
  -0.57191688  -0.55560266  -0.5450692   -0.52882773  -0.52324751
  -0.49443934  -0.48571926  -0.46764464  -0.45614187  -0.44980907
  -0.42611186  -0.4155398   -0.40916282  -0.40542201  -0.38576432
  -0.37871372  -0.37169037  -0.36918328  -0.35863337  -0.35639742
  -0.34667827  -0.33724434  -0.33475441  -0.32641063  -0.31358643
  -0.28387695  -0.27590839  -0.26619824  -0.24971803  -0.24698726
  -0.24250101  -0.227276    -0.22459777  -0.20854308  -0.19638711
  -0.17751975  -0.16123116  -0.10184693  -0.0299932    0.03605362
   0.05942154   0.097174     0.10131447   0.13118025   0.16567419
   0.17488203   0.18862749   0.21994863   0.25440447   0.26239725
   0.26432677   0.27908485   0.28257009   0.30004375   0.32179652
   0.32873359   0.3364562    0.35346185   0.36336911   0.37358141
   0.39680181   0.40517464   0.40780906   0.42699875   0.43290077
   0.43401876   0.46105715   0.47514613   0.5059663    0.51904824
   0.5544625    0.5736539    0.58894539   0.59243745   0.60756421
   0.64694008   0.66094452   0.67451801   0.68101905   0.70347402
   0.71549702   0.74378778   0.77902082   0.82472866   0.8429886
   0.87075123   0.88599522   1.0916921    1.14802105]
nelec by numeric integration = 146.0000013494456
    CPU time for vxc     37.97 sec, wall time     15.81 sec
E1 = -4094.8850014782256  Ecoul = 1892.4310146950975  Exc = -124.52065246341711
cycle= 10 E= -835.688161530387  delta_E= -3.78e-08  |g|= 0.000104  |ddm|= 0.000628
    CPU time for cycle= 10     38.21 sec, wall time     15.86 sec
  HOMO = -0.10185016353554  LUMO = -0.0299940967445364
  mo_energy =
[-10.0452883  -10.03142386 -10.02976402 -10.02907132 -10.02604359
 -10.02311225 -10.02193331 -10.01864104 -10.01688958 -10.016151
 -10.01550907 -10.01412537 -10.01377305 -10.01327262 -10.01180735
 -10.00978276 -10.00878438 -10.0086529  -10.00718567 -10.00306401
 -10.0016268   -9.99948842  -0.85097063  -0.84282792  -0.83300708
  -0.7825599   -0.76101009  -0.74395761  -0.73595589  -0.72192144
  -0.69607837  -0.68075017  -0.64076867  -0.63429275  -0.59602222
  -0.57191666  -0.55559992  -0.54507587  -0.5288296   -0.52324714
  -0.4944426   -0.48571613  -0.46764434  -0.45613863  -0.44981053
  -0.42610957  -0.41553771  -0.40916458  -0.4054261   -0.38576136
  -0.37870899  -0.37169506  -0.36918533  -0.35863397  -0.35639852
  -0.34668009  -0.33724478  -0.3347585   -0.32640922  -0.31358798
  -0.28387485  -0.27590687  -0.26620231  -0.24971505  -0.24698854
  -0.24250273  -0.22728315  -0.22459929  -0.2085419   -0.19639116
  -0.17752083  -0.16123031  -0.10185016  -0.0299941    0.03605639
   0.05941997   0.09717368   0.10131356   0.13118076   0.1656617
   0.17487936   0.18863241   0.21994026   0.25440207   0.26240089
   0.26432848   0.27908404   0.28256503   0.30003292   0.32179471
   0.32873934   0.33645555   0.35345684   0.36337066   0.37357438
   0.3968023    0.4051777    0.40780716   0.42700435   0.43290704
   0.43401089   0.46106491   0.47514796   0.50596699   0.51905256
   0.55446504   0.57365285   0.58895004   0.59244141   0.60755875
   0.64693749   0.6609412    0.67452102   0.68101872   0.70347392
   0.7154993    0.74378597   0.77902901   0.82473212   0.84298441
   0.87075857   0.88599414   1.091676     1.14801493]
nelec by numeric integration = 146.0000013494636
    CPU time for vxc     38.11 sec, wall time     15.87 sec
E1 = -4094.8849471194176  Ecoul = 1892.4309616978135  Exc = -124.5206538292641
cycle= 11 E= -835.68816153471  delta_E= -4.32e-09  |g|= 5.69e-05  |ddm|= 0.000261
    CPU time for cycle= 11     38.72 sec, wall time     15.96 sec
  HOMO = -0.101849034455767  LUMO = -0.0299923785939157
  mo_energy =
[-10.04527695 -10.03142419 -10.0297578  -10.02907024 -10.02604849
 -10.02311125 -10.02193304 -10.01864193 -10.01689047 -10.01615
 -10.01549803 -10.01412806 -10.01377945 -10.01327499 -10.01180224
 -10.00978392 -10.00877102 -10.00864179 -10.00719627 -10.00305797
 -10.00163518  -9.99948114  -0.85096773  -0.84282694  -0.83300549
  -0.78256162  -0.76100568  -0.74395692  -0.73595448  -0.7219208
  -0.69607781  -0.68074921  -0.64076762  -0.63429146  -0.59602169
  -0.57191594  -0.55560025  -0.54507318  -0.52882805  -0.52324663
  -0.49444022  -0.48571593  -0.46764356  -0.45613828  -0.44980924
  -0.426109    -0.41553739  -0.40916335  -0.40542448  -0.385762
  -0.37870946  -0.37169295  -0.36918315  -0.35863398  -0.35639753
  -0.34667867  -0.33724353  -0.33475699  -0.32640857  -0.31358683
  -0.28387511  -0.27590649  -0.26620024  -0.24971567  -0.24698768
  -0.24250165  -0.22728179  -0.22459785  -0.20854152  -0.19639055
  -0.17751995  -0.16122955  -0.10184903  -0.02999238   0.03605749
   0.059422     0.09717488   0.10131423   0.13118109   0.16566362
   0.17488196   0.18863155   0.21994188   0.25440337   0.26240117
   0.26432898   0.27908521   0.28256637   0.30003628   0.32179514
   0.32873852   0.33645583   0.35345812   0.36336976   0.37357744
   0.39680282   0.40517768   0.4078081    0.42700327   0.43290549
   0.43401438   0.46106324   0.47514704   0.50596787   0.51905473
   0.55446526   0.57365379   0.58895008   0.59244154   0.60756155
   0.6469395    0.66094314   0.67452207   0.68102132   0.70347447
   0.71549906   0.74378765   0.77902818   0.82473394   0.84298846
   0.87075821   0.88599585   1.09168093   1.14801643]
nelec by numeric integration = 146.00000134946166
    CPU time for vxc     37.72 sec, wall time     15.66 sec
E1 = -4094.884858089056  Ecoul = 1892.4308700559457  Exc = -124.5206512189694
cycle= 12 E= -835.688161535921  delta_E= -1.21e-09  |g|= 1.69e-05  |ddm|= 0.000112
    CPU time for cycle= 12     38.32 sec, wall time     15.75 sec
  HOMO = -0.101848736414384  LUMO = -0.0299917647603171
  mo_energy =
[-10.04527634 -10.03142164 -10.02975614 -10.02907087 -10.02604665
 -10.02311183 -10.02193383 -10.01864228 -10.0168917  -10.01615083
 -10.01549995 -10.01412481 -10.01377545 -10.01327279 -10.01180205
 -10.00978024 -10.00877305 -10.00864315 -10.00719203 -10.00306064
 -10.00163316  -9.99947878  -0.85096711  -0.84282622  -0.83300513
  -0.7825607   -0.76100561  -0.74395644  -0.73595423  -0.72191986
  -0.69607723  -0.68074855  -0.64076743  -0.63429081  -0.59602163
  -0.57191528  -0.55559942  -0.54507284  -0.52882819  -0.52324627
  -0.49444008  -0.48571578  -0.46764326  -0.45613791  -0.44980916
  -0.42610866  -0.41553672  -0.40916331  -0.40542401  -0.38576138
  -0.37870884  -0.37169236  -0.36918316  -0.35863294  -0.35639687
  -0.34667823  -0.33724306  -0.33475736  -0.32640788  -0.3135862
  -0.28387415  -0.27590587  -0.26619981  -0.24971467  -0.24698747
  -0.24250173  -0.2272809   -0.22459759  -0.20854066  -0.19638914
  -0.17751949  -0.16122895  -0.10184874  -0.02999176   0.03605812
   0.05942253   0.09717572   0.10131449   0.13118174   0.16566485
   0.17488215   0.18863248   0.21994288   0.25440358   0.26240076
   0.26432908   0.27908562   0.28256661   0.30003726   0.32179559
   0.32873917   0.3364568    0.35345842   0.36337115   0.37357757
   0.39680287   0.40517776   0.4078088    0.42700413   0.43290607
   0.43401483   0.46106376   0.47514878   0.50596789   0.51905407
   0.55446521   0.57365402   0.58895041   0.59244213   0.60756208
   0.64693965   0.66094386   0.67452264   0.68102131   0.70347543
   0.71550027   0.74378713   0.77902896   0.82473359   0.84298841
   0.87075902   0.88599667   1.0916822    1.14801705]
nelec by numeric integration = 146.0000013494602
    CPU time for vxc     37.76 sec, wall time     15.72 sec
E1 = -4094.884826028392  Ecoul = 1892.4308384142503  Exc = -124.52065163804807
cycle= 13 E= -835.688161536032  delta_E= -1.11e-10  |g|= 1.01e-05  |ddm|= 4.86e-05
    CPU time for cycle= 13     38.28 sec, wall time     15.80 sec
  HOMO = -0.101848911659372  LUMO = -0.0299920027655669
  mo_energy =
[-10.04527704 -10.03142215 -10.02975663 -10.02907101 -10.02604724
 -10.02311181 -10.02193345 -10.01864176 -10.01689062 -10.01614951
 -10.01550008 -10.0141264  -10.01377658 -10.01327369 -10.01180211
 -10.00978335 -10.00877289 -10.00864387 -10.00719278 -10.00305938
 -10.00163357  -9.99948047  -0.85096727  -0.8428266   -0.83300538
  -0.7825611   -0.76100566  -0.74395662  -0.73595444  -0.72192032
  -0.69607746  -0.68074897  -0.64076744  -0.63429132  -0.59602183
  -0.57191566  -0.55559988  -0.54507295  -0.52882817  -0.52324638
  -0.49444027  -0.48571597  -0.46764337  -0.45613828  -0.44980921
  -0.42610894  -0.41553715  -0.4091633   -0.40542413  -0.38576165
  -0.37870934  -0.37169252  -0.3691833   -0.35863331  -0.35639717
  -0.34667842  -0.33724328  -0.33475719  -0.32640826  -0.31358645
  -0.28387448  -0.27590614  -0.26619996  -0.24971524  -0.2469876
  -0.24250168  -0.22728093  -0.22459775  -0.2085411   -0.19638936
  -0.17751967  -0.16122942  -0.10184891  -0.029992     0.03605764
   0.05942235   0.09717524   0.1013145    0.13118146   0.16566485
   0.17488196   0.1886321    0.21994294   0.2544035    0.26240061
   0.2643288    0.27908534   0.28256675   0.30003705   0.32179556
   0.32873865   0.33645657   0.35345838   0.36337064   0.37357746
   0.39680275   0.40517761   0.40780856   0.42700349   0.43290562
   0.43401465   0.46106334   0.47514811   0.50596784   0.51905396
   0.55446523   0.573654     0.58895003   0.59244174   0.6075619
   0.64693962   0.6609435    0.67452211   0.68102105   0.70347492
   0.71549961   0.7437875    0.77902848   0.82473351   0.84298829
   0.87075837   0.88599646   1.09168178   1.1480171 ]
nelec by numeric integration = 146.00000134946015
    CPU time for vxc     38.50 sec, wall time     15.86 sec
E1 = -4094.884848219883  Ecoul = 1892.4308612082946  Exc = -124.5206522406327
cycle= 14 E= -835.688161536063  delta_E= -3.09e-11  |g|= 3.45e-06  |ddm|= 2.17e-05
    CPU time for cycle= 14     38.94 sec, wall time     15.93 sec
  HOMO = -0.101849285932514  LUMO = -0.0299923228289081
  mo_energy =
[-10.045277   -10.03142207 -10.02975814 -10.02907059 -10.02604733
 -10.02311192 -10.0219338  -10.01864283 -10.01689132 -10.01615039
 -10.01550049 -10.01412636 -10.01377728 -10.01327373 -10.01180177
 -10.00978231 -10.00877184 -10.00864365 -10.00719305 -10.00306252
 -10.0016332   -9.99947912  -0.85096758  -0.84282673  -0.83300576
  -0.78256127  -0.76100559  -0.74395675  -0.73595454  -0.72192049
  -0.69607765  -0.6807489   -0.64076811  -0.63429112  -0.5960222
  -0.57191563  -0.5555999   -0.54507312  -0.52882833  -0.52324657
  -0.4944403   -0.4857162   -0.46764357  -0.45613832  -0.4498098
  -0.42610896  -0.41553716  -0.40916347  -0.40542432  -0.38576178
  -0.37870923  -0.37169277  -0.36918332  -0.35863334  -0.35639724
  -0.34667855  -0.33724352  -0.33475747  -0.32640804  -0.31358641
  -0.28387458  -0.27590625  -0.26619995  -0.24971512  -0.24698785
  -0.24250194  -0.22728119  -0.22459784  -0.20854123  -0.19638959
  -0.17751992  -0.16122941  -0.10184929  -0.02999232   0.03605754
   0.05942221   0.09717526   0.10131414   0.13118131   0.16566472
   0.17488204   0.18863205   0.21994244   0.25440335   0.26240069
   0.26432887   0.27908531   0.28256612   0.3000373    0.3217951
   0.3287387    0.33645608   0.35345827   0.36337051   0.37357747
   0.39680257   0.40517749   0.40780824   0.42700355   0.43290572
   0.43401483   0.46106336   0.47514834   0.50596768   0.5190539
   0.55446493   0.57365327   0.58895001   0.59244155   0.60756171
   0.64693929   0.66094358   0.67452224   0.68102099   0.70347487
   0.71549964   0.74378678   0.77902853   0.82473332   0.84298839
   0.87075847   0.88599612   1.09168182   1.14801602]
nelec by numeric integration = 146.0000013494576
    CPU time for vxc     38.13 sec, wall time     15.78 sec
E1 = -4094.8848654005533  Ecoul = 1892.4308786806835  Exc = -124.52065253228878
Extra cycle  E= -835.688161536  delta_E= 6.28e-11  |g|= 1.19e-05  |ddm|= 3.05e-05
    CPU time for scf_cycle    625.31 sec, wall time    255.83 sec
    CPU time for SCF    625.31 sec, wall time    255.83 sec
converged SCF energy = -835.688161536
nelec by numeric integration = 146.0000013494576
    CPU time for vxc     37.71 sec, wall time     15.64 sec
 ** Mulliken pop  **
pop of  0 C 1s            1.99189
pop of  0 C 2s            1.24383
pop of  0 C 2px           0.92451
pop of  0 C 2py           0.91991
pop of  0 C 2pz           0.89001
pop of  1 C 1s            1.99126
pop of  1 C 2s            1.06258
pop of  1 C 2px           1.03846
pop of  1 C 2py           1.00817
pop of  1 C 2pz           0.93874
pop of  2 C 1s            1.99078
pop of  2 C 2s            1.15734
pop of  2 C 2px           1.00795
pop of  2 C 2py           0.96893
pop of  2 C 2pz           0.98065
pop of  3 C 1s            1.99144
pop of  3 C 2s            1.18758
pop of  3 C 2px           0.99393
pop of  3 C 2py           0.91989
pop of  3 C 2pz           0.97993
pop of  4 C 1s            1.99161
pop of  4 C 2s            1.08237
pop of  4 C 2px           0.98673
pop of  4 C 2py           1.00564
pop of  4 C 2pz           0.98841
pop of  5 C 1s            1.99100
pop of  5 C 2s            1.12487
pop of  5 C 2px           1.00578
pop of  5 C 2py           0.94928
pop of  5 C 2pz           0.97488
pop of  6 C 1s            1.99090
pop of  6 C 2s            1.16953
pop of  6 C 2px           1.00933
pop of  6 C 2py           0.94139
pop of  6 C 2pz           0.94532
pop of  7 C 1s            1.99133
pop of  7 C 2s            1.19668
pop of  7 C 2px           0.96142
pop of  7 C 2py           0.93231
pop of  7 C 2pz           0.95445
pop of  8 C 1s            1.99105
pop of  8 C 2s            1.05608
pop of  8 C 2px           1.00236
pop of  8 C 2py           1.01293
pop of  8 C 2pz           0.97930
pop of  9 C 1s            1.99119
pop of  9 C 2s            1.16168
pop of  9 C 2px           0.98052
pop of  9 C 2py           0.95401
pop of  9 C 2pz           0.90005
pop of  10 C 1s           1.99140
pop of  10 C 2s           1.00052
pop of  10 C 2px          1.03255
pop of  10 C 2py          1.03864
pop of  10 C 2pz          1.01409
pop of  11 C 1s           1.99100
pop of  11 C 2s           1.17313
pop of  11 C 2px          1.02406
pop of  11 C 2py          0.93204
pop of  11 C 2pz          0.99073
pop of  12 C 1s           1.99089
pop of  12 C 2s           1.10930
pop of  12 C 2px          1.01387
pop of  12 C 2py          0.96173
pop of  12 C 2pz          0.91063
pop of  13 C 1s           1.99122
pop of  13 C 2s           1.20142
pop of  13 C 2px          0.94246
pop of  13 C 2py          0.91743
pop of  13 C 2pz          0.93816
pop of  14 C 1s           1.99088
pop of  14 C 2s           1.15432
pop of  14 C 2px          1.00541
pop of  14 C 2py          0.92938
pop of  14 C 2pz          0.97271
pop of  15 C 1s           1.99082
pop of  15 C 2s           1.13876
pop of  15 C 2px          1.01210
pop of  15 C 2py          0.95683
pop of  15 C 2pz          0.99728
pop of  16 C 1s           1.99043
pop of  16 C 2s           1.10594
pop of  16 C 2px          1.00972
pop of  16 C 2py          0.96015
pop of  16 C 2pz          0.94322
pop of  17 C 1s           1.99098
pop of  17 C 2s           1.14902
pop of  17 C 2px          0.97211
pop of  17 C 2py          0.94795
pop of  17 C 2pz          0.94099
pop of  18 C 1s           1.99054
pop of  18 C 2s           1.11158
pop of  18 C 2px          1.01048
pop of  18 C 2py          0.95806
pop of  18 C 2pz          1.01848
pop of  19 C 1s           1.99130
pop of  19 C 2s           1.19105
pop of  19 C 2px          0.95392
pop of  19 C 2py          0.94721
pop of  19 C 2pz          0.98396
pop of  20 C 1s           1.99056
pop of  20 C 2s           1.09688
pop of  20 C 2px          1.00405
pop of  20 C 2py          1.00296
pop of  20 C 2pz          0.98695
pop of  21 C 1s           1.99082
pop of  21 C 2s           1.12789
pop of  21 C 2px          1.00002
pop of  21 C 2py          0.97659
pop of  21 C 2pz          0.97160
pop of  22 H 1s           0.89751
pop of  23 H 1s           0.90069
pop of  24 H 1s           0.95149
pop of  25 H 1s           0.95802
pop of  26 H 1s           0.92396
pop of  27 H 1s           0.96437
pop of  28 H 1s           0.95009
pop of  29 H 1s           0.90274
pop of  30 H 1s           0.94795
pop of  31 H 1s           0.91173
pop of  32 H 1s           0.89955
pop of  33 H 1s           0.89992
pop of  34 H 1s           0.91318
pop of  35 H 1s           0.93946
 ** Mulliken atomic charges  **
charge of    0C =      0.02985
charge of    1C =     -0.03921
charge of    2C =     -0.10564
charge of    3C =     -0.07277
charge of    4C =     -0.05476
charge of    5C =     -0.04582
charge of    6C =     -0.05648
charge of    7C =     -0.03618
charge of    8C =     -0.04174
charge of    9C =      0.01255
charge of   10C =     -0.07719
charge of   11C =     -0.11097
charge of   12C =      0.01358
charge of   13C =      0.00932
charge of   14C =     -0.05270
charge of   15C =     -0.09579
charge of   16C =     -0.00945
charge of   17C =     -0.00104
charge of   18C =     -0.08913
charge of   19C =     -0.06743
charge of   20C =     -0.08139
charge of   21C =     -0.06692
charge of   22H =      0.10249
charge of   23H =      0.09931
charge of   24H =      0.04851
charge of   25H =      0.04198
charge of   26H =      0.07604
charge of   27H =      0.03563
charge of   28H =      0.04991
charge of   29H =      0.09726
charge of   30H =      0.05205
charge of   31H =      0.08827
charge of   32H =      0.10045
charge of   33H =      0.10008
charge of   34H =      0.08682
charge of   35H =      0.06054
Dipole moment(X, Y, Z, Debye): -0.12807,  0.05776,  0.05595
nelec by numeric integration = 146.0000013494576
    CPU time for vxc     37.63 sec, wall time     15.73 sec
E1 = -4094.8848654005533  Ecoul = 1892.4308786806832  Exc = -124.52065253228879
nelec by numeric integration = 146.0000013494576
    CPU time for vxc     38.01 sec, wall time     15.77 sec
E1 = -4094.8848654005533  Ecoul = 1892.4308786806832  Exc = -124.52065253228879
