System: uname_result(system='Linux', node='cosmopc18', release='5.15.0-97-generic', version='#107-Ubuntu SMP Wed Feb 7 13:26:48 UTC 2024', machine='x86_64')  Threads 4
Python 3.11.8 (main, Feb 26 2024, 21:39:34) [GCC 11.2.0]
numpy 1.26.4  scipy 1.11.4
Date: Tue Apr  9 13:02:57 2024
PySCF version 2.3.0
PySCF path  /home/saade/miniconda3/envs/tutorial/lib/python3.11/site-packages/pyscf

[ENV] PYSCFAD_BACKEND torch
[CONFIG] conf_file None
[INPUT] verbose = 5
[INPUT] max_memory = 4000 
[INPUT] num. atoms = 36
[INPUT] num. electrons = 146
[INPUT] charge = 0
[INPUT] spin (= nelec alpha-beta = 2S) = 0
[INPUT] symmetry False subgroup None
[INPUT] Mole.unit = angstrom
[INPUT] Symbol           X                Y                Z      unit          X                Y                Z       unit  Magmom
[INPUT]  1 C      0.098044000000   3.531110000000   0.717236000000 AA    0.185276308157   6.672830815713   1.355379606679 Bohr   0.0
[INPUT]  2 C      0.078687000000   3.687754000000  -0.737571000000 AA    0.148696879564   6.968845074769  -1.393807187422 Bohr   0.0
[INPUT]  3 C      0.130032000000   5.004738000000   1.287021000000 AA    0.245724867429   9.457584145203   2.432117206564 Bohr   0.0
[INPUT]  4 C     -0.117977000000   2.578773000000   1.308248000000 AA   -0.222944218998   4.873174707423   2.472230423010 Bohr   0.0
[INPUT]  5 C      0.052252000000   4.879725000000  -1.445307000000 AA    0.098741969461   9.221343813193  -2.731234395917 Bohr   0.0
[INPUT]  6 C     -0.229149000000   2.314264000000  -1.340345000000 AA   -0.433028851718   4.373325139940  -2.532884962430 Bohr   0.0
[INPUT]  7 C      0.069814000000   5.982276000000  -0.728638000000 AA    0.131929339660  11.304863241559  -1.376926263951 Bohr   0.0
[INPUT]  8 C      0.035846000000   6.001559000000   0.746776000000 AA    0.067739122661  11.341302830419   1.411202116398 Bohr   0.0
[INPUT]  9 C     -0.059671000000   1.254396000000   0.818394000000 AA   -0.112761847579   2.370464891750   1.546540521987 Bohr   0.0
[INPUT] 10 C      0.130488000000   1.168236000000  -0.879281000000 AA    0.246586582542   2.207646088857  -1.661600276534 Bohr   0.0
[INPUT] 11 C     -0.137687000000  -0.068391000000   1.252667000000 AA   -0.260190720913  -0.129240259385   2.367197555281 Bohr   0.0
[INPUT] 12 C      0.053488000000   0.062597000000  -1.433815000000 AA    0.101077670951   0.118291186219  -2.709517663293 Bohr   0.0
[INPUT] 13 C     -0.092951000000  -1.251621000000   0.609577000000 AA   -0.175651933004  -2.365220901754   1.151933581834 Bohr   0.0
[INPUT] 14 C      0.032813000000  -1.175097000000  -0.897921000000 AA    0.062007583325  -2.220611499798  -1.696824771496 Bohr   0.0
[INPUT] 15 C     -0.076056000000  -2.282233000000   1.296134000000 AA   -0.143725010130  -4.312795322444   2.449338280737 Bohr   0.0
[INPUT] 16 C     -0.010561000000  -2.557984000000  -1.405223000000 AA   -0.019957397602  -4.833889191019  -2.655486613940 Bohr   0.0
[INPUT] 17 C     -0.027192000000  -3.563973000000   0.644557000000 AA   -0.051385432779  -6.734932885345   1.218036201671 Bohr   0.0
[INPUT] 18 C      0.080983000000  -3.655266000000  -0.635748000000 AA    0.153035690746  -6.907451652434  -1.201389604240 Bohr   0.0
[INPUT] 19 C     -0.025055000000  -4.849295000000   1.528514000000 AA   -0.047347088051  -9.163839447223   2.888472837563 Bohr   0.0
[INPUT] 20 C     -0.009492000000  -4.999994000000  -1.227370000000 AA   -0.017937280374  -9.448619284469  -2.319393153507 Bohr   0.0
[INPUT] 21 C      0.017315000000  -6.160515000000   0.723111000000 AA    0.032720607847 -11.641686136275   1.366481747660 Bohr   0.0
[INPUT] 22 C      0.155546000000  -6.229243000000  -0.682040000000 AA    0.293939339772 -11.771563233364  -1.288868805998 Bohr   0.0
[INPUT] 23 H     -0.023787000000   5.095377000000   2.422648000000 AA   -0.044950915325   9.628867031408   4.578141216225 Bohr   0.0
[INPUT] 24 H      0.195633000000   2.436530000000   2.531352000000 AA    0.369692790927   4.604374394287   4.783562004870 Bohr   0.0
[INPUT] 25 H      0.038265000000   4.887235000000  -2.287429000000 AA    0.072310370156   9.235535656389  -4.322614339388 Bohr   0.0
[INPUT] 26 H      0.001293000000   2.397841000000  -2.719962000000 AA    0.002443415879   4.531262780253  -5.139983249224 Bohr   0.0
[INPUT] 27 H     -0.084202000000   6.999278000000  -1.282252000000 AA   -0.159118719141  13.226718489693  -2.423105102676 Bohr   0.0
[INPUT] 28 H      0.090081000000   6.802364000000   1.128463000000 AA    0.170228419027  12.854604959601   2.132486011705 Bohr   0.0
[INPUT] 29 H      0.138358000000   0.174094000000   2.446772000000 AA    0.261458727143   0.328989979930   4.623728969254 Bohr   0.0
[INPUT] 30 H     -0.111477000000  -0.069735000000  -2.599194000000 AA   -0.210660999188  -0.131780051297  -4.911764804613 Bohr   0.0
[INPUT] 31 H      0.088693000000  -2.203821000000   2.499372000000 AA    0.167605479166  -4.164618117565   4.723128563406 Bohr   0.0
[INPUT] 32 H     -0.149082000000  -2.450997000000  -2.524132000000 AA   -0.281724150102  -4.631713062131  -4.769918182251 Bohr   0.0
[INPUT] 33 H     -0.048467000000  -4.988243000000   2.390975000000 AA   -0.091589356079  -9.426413112779   4.518287920682 Bohr   0.0
[INPUT] 34 H     -0.020418000000  -4.865550000000  -2.277578000000 AA   -0.038584428011  -9.194556945378  -4.303998647335 Bohr   0.0
[INPUT] 35 H      0.014576000000  -6.934846000000   1.099723000000 AA    0.027544647992 -13.104959656036   2.078175282885 Bohr   0.0
[INPUT] 36 H      0.134510000000  -6.954512000000  -1.108404000000 AA    0.254187061015 -13.142123010001  -2.094579995372 Bohr   0.0
[INPUT] ---------------- BASIS SET ---------------- 
[INPUT] l, kappa, [nprim/nctr], expnt,             c_1 c_2 ...
[INPUT] H
[INPUT] 0    0    [3    /1   ]  3.42525091        0.15432897
                                0.62391373        0.53532814
                                0.1688554         0.44463454
[INPUT] C
[INPUT] 0    0    [3    /1   ]  71.616837         0.15432897
                                13.045096         0.53532814
                                3.5305122         0.44463454
[INPUT] 0    0    [3    /1   ]  2.9412494         -0.09996723
                                0.6834831         0.39951283
                                0.2222899         0.70011547
[INPUT] 1    0    [3    /1   ]  2.9412494         0.15591627
                                0.6834831         0.60768372
                                0.2222899         0.39195739

nuclear repulsion = 1511.33218493588
number of shells = 80
number of NR pGTOs = 372
number of NR cGTOs = 124
basis = sto3g
ecp = {}
CPU time:     29469.04
atom C rad-grids = 99, ang-grids = [ 50  50  50  50  50  50  50  50  50  50  50  50  50  50  50  50  50  50
  50  50  50  50  50  50  50  50  50  50  50  50  50  86  86  86  86  86
  86  86  86  86  86  86  86 434 434 434 434 434 434 434 434 434 590 590
 590 590 590 590 590 590 590 590 590 590 590 590 590 590 590 590 590 590
 590 590 590 590 590 590 590 434 434 434 434 434 434 434 434 434 434 434
 434 434 434 434 434 434 434 434 434]
atom H rad-grids = 99, ang-grids = [ 50  50  50  50  50  50  50  50  50  50  50  50  50  50  50  50  50  50
  50  50  50  50  50  50  50  50  50  50  86  86  86  86  86  86  86 434
 434 434 434 434 434 434 434 590 590 590 590 590 590 590 590 590 590 590
 590 590 590 590 590 590 590 590 590 590 590 590 590 590 590 434 434 434
 434 434 434 434 434 434 434 434 434 434 434 434 434 434 434 434 434 434
 434 434 434 434 434 434 434 434 434]
tot_boxes 5270, boxes in each direction [ 8 29 15]
Padding 0 grids
tot grids = 1157832


******** <class 'pyscf.dft.rks.RKS'> ********
method = RKS
initial guess = minao
damping factor = 0
level_shift factor = 0
DIIS = <class 'pyscf.scf.diis.CDIIS'>
diis_start_cycle = 1
diis_space = 8
SCF conv_tol = 1e-10
SCF conv_tol_grad = None
SCF max_cycles = 50
direct_scf = True
direct_scf_tol = 1e-13
chkfile to save SCF result = /home/saade/mlelec/tutorials/tmp7t81yssc
max_memory 4000 MB (current use 638 MB)
XC library pyscf.dft.libxc version 6.1.0
    S. Lehtola, C. Steigemann, M. J.T. Oliveira, and M. A.L. Marques.,  SoftwareX 7, 1–5 (2018)
XC functionals = b3lypg
    P. J. Stephens, F. J. Devlin, C. F. Chabalowski, and M. J. Frisch.,  J. Phys. Chem. 98, 11623 (1994)
radial grids: 
    Treutler-Ahlrichs [JCP 102, 346 (1995); DOI:10.1063/1.469408] (M4) radial grids
    
becke partition: Becke, JCP 88, 2547 (1988); DOI:10.1063/1.454033
pruning grids: <function nwchem_prune at 0x7f9db5616ca0>
grids dens level: 3
symmetrized grids: False
atomic radii adjust function: <function treutler_atomic_radii_adjust at 0x7f9db5617380>
User specified grid scheme (99, 590)
small_rho_cutoff = 1e-07
Set gradient conv threshold to 1e-05
Initial guess from minao.
nelec by numeric integration = 145.2694818143125
    CPU time for vxc     37.27 sec, wall time     15.65 sec
E1 = -4121.351530509169  Ecoul = 1894.2769296031333  Exc = -126.46027581627818
init E= -842.202691786437
cond(S) = 26.260589204365825
    CPU time for initialize scf     46.96 sec, wall time     17.99 sec
  HOMO = -0.213028113985702  LUMO = -0.153395269923244
  mo_energy =
[-1.01572421e+01 -1.01430573e+01 -1.01373073e+01 -1.01370174e+01
 -1.01347920e+01 -1.01335290e+01 -1.01292668e+01 -1.01264105e+01
 -1.01223499e+01 -1.01219614e+01 -1.01155983e+01 -1.01049747e+01
 -1.01020053e+01 -1.01012202e+01 -1.00998559e+01 -1.00975285e+01
 -1.00930065e+01 -1.00924953e+01 -1.00919478e+01 -1.00901593e+01
 -1.00888686e+01 -1.00842824e+01 -1.10887010e+00 -1.09127910e+00
 -1.05064276e+00 -1.01389090e+00 -9.91880459e-01 -9.58673904e-01
 -9.50406371e-01 -9.02629619e-01 -8.75571306e-01 -8.58495100e-01
 -8.09738333e-01 -7.82311787e-01 -7.40054665e-01 -7.29347868e-01
 -7.10496864e-01 -6.88516465e-01 -6.72531913e-01 -6.49372103e-01
 -6.33229272e-01 -5.99648113e-01 -5.88512972e-01 -5.78787871e-01
 -5.52156629e-01 -5.33581984e-01 -5.27355478e-01 -5.14349756e-01
 -5.05706189e-01 -4.95435358e-01 -4.92962307e-01 -4.81141239e-01
 -4.71822199e-01 -4.61399891e-01 -4.57024138e-01 -4.39481305e-01
 -4.31767475e-01 -4.19256168e-01 -4.06776706e-01 -4.01719557e-01
 -3.96783084e-01 -3.90185697e-01 -3.89330358e-01 -3.77436592e-01
 -3.57478159e-01 -3.46030577e-01 -3.38751916e-01 -3.24721680e-01
 -3.00513863e-01 -2.88301339e-01 -2.62566462e-01 -2.52816178e-01
 -2.13028114e-01 -1.53395270e-01 -9.61343122e-02 -8.03057609e-02
 -5.06244435e-02 -1.55016536e-02 -7.91400948e-03  2.37003554e-02
  3.71617987e-02  6.48334214e-02  8.97004049e-02  9.17680848e-02
  1.34439648e-01  1.47108000e-01  1.61252767e-01  1.74327509e-01
  1.89382314e-01  1.95484905e-01  2.11990011e-01  2.27160494e-01
  2.37490540e-01  2.53108847e-01  2.57374504e-01  2.72214728e-01
  2.78156844e-01  3.02165041e-01  3.08105475e-01  3.18248370e-01
  3.40502157e-01  3.72219242e-01  3.78773349e-01  4.10239640e-01
  4.23014774e-01  4.51334846e-01  4.92290733e-01  5.13032519e-01
  5.28047827e-01  5.61133037e-01  5.96651973e-01  6.01563555e-01
  6.11260746e-01  6.50070581e-01  6.54781772e-01  6.76255304e-01
  6.94847724e-01  7.08756044e-01  7.47934362e-01  7.73272166e-01
  7.95363367e-01  8.16748773e-01  8.58932100e-01  9.53749841e-01]
nelec by numeric integration = 146.00000203101746
    CPU time for vxc     38.02 sec, wall time     15.75 sec
E1 = -4135.179835806599  Ecoul = 1913.4743852997203  Exc = -125.02465889432327
cycle= 1 E= -835.397924465325  delta_E=  6.8  |g|= 0.297  |ddm|= 9.37
    CPU time for cycle= 1     38.52 sec, wall time     15.83 sec
  HOMO = -0.0974849830603697  LUMO = -0.00483719451024493
  mo_energy =
[-1.00746019e+01 -1.00538633e+01 -1.00284769e+01 -1.00278794e+01
 -1.00273828e+01 -1.00206214e+01 -1.00148272e+01 -1.00144508e+01
 -1.00108862e+01 -1.00051981e+01 -9.99812028e+00 -9.99710112e+00
 -9.99456222e+00 -9.99254267e+00 -9.99098654e+00 -9.98334705e+00
 -9.97252246e+00 -9.96866607e+00 -9.95865594e+00 -9.93436435e+00
 -9.92485938e+00 -9.92469042e+00 -8.54798940e-01 -8.41520303e-01
 -8.08929473e-01 -7.88984670e-01 -7.64421915e-01 -7.57287362e-01
 -7.37190546e-01 -7.04628430e-01 -6.90292994e-01 -6.78983743e-01
 -6.43910608e-01 -6.27667492e-01 -6.03083259e-01 -5.88027839e-01
 -5.82237809e-01 -5.63228965e-01 -5.36221506e-01 -5.21170281e-01
 -5.01541982e-01 -4.81376177e-01 -4.67147704e-01 -4.60737556e-01
 -4.47341952e-01 -4.36309536e-01 -4.22950644e-01 -4.12921297e-01
 -3.91932173e-01 -3.86969557e-01 -3.75124190e-01 -3.68293687e-01
 -3.64210011e-01 -3.59673772e-01 -3.45270071e-01 -3.44007349e-01
 -3.23456310e-01 -3.15171308e-01 -3.07197879e-01 -3.06038803e-01
 -2.94076768e-01 -2.88236690e-01 -2.75981343e-01 -2.64531469e-01
 -2.58743114e-01 -2.40594605e-01 -2.32220703e-01 -2.23283330e-01
 -1.90900353e-01 -1.74571090e-01 -1.52333135e-01 -1.47287073e-01
 -9.74849831e-02 -4.83719451e-03  4.73138674e-02  7.10725750e-02
  9.92715357e-02  1.30737434e-01  1.42049254e-01  1.71386283e-01
  1.93487013e-01  2.29182904e-01  2.43728682e-01  2.55101505e-01
  2.81148410e-01  2.97403791e-01  3.13300086e-01  3.21514953e-01
  3.29380497e-01  3.44625906e-01  3.52745248e-01  3.72508794e-01
  3.88592314e-01  3.92503884e-01  4.10693466e-01  4.26569997e-01
  4.30463366e-01  4.39470069e-01  4.53414947e-01  4.68653253e-01
  4.80825171e-01  5.17731968e-01  5.29088384e-01  5.61848852e-01
  5.72141179e-01  5.99755006e-01  6.50098607e-01  6.65421602e-01
  6.91916500e-01  7.02284481e-01  7.32042448e-01  7.54629559e-01
  7.68452529e-01  7.92644117e-01  8.02521849e-01  8.24813392e-01
  8.32930652e-01  8.81356862e-01  8.98608171e-01  9.38893101e-01
  9.69744261e-01  9.95402434e-01  1.01992374e+00  1.11429709e+00]
nelec by numeric integration = 146.00000189280937
    CPU time for vxc     38.16 sec, wall time     15.80 sec
E1 = -4129.963967777461  Ecoul = 1908.1503786260653  Exc = -124.88744264447234
cycle= 2 E= -835.368846859992  delta_E= 0.0291  |g|= 0.417  |ddm|= 1.08
    CPU time for cycle= 2     38.67 sec, wall time     15.88 sec
  HOMO = -0.114124907967196  LUMO = -0.0219735914794237
  mo_energy =
[-10.03393454 -10.03259121 -10.03218962 -10.03090149 -10.03019794
 -10.03015187 -10.0285694  -10.02650105 -10.01661252 -10.01345046
 -10.0129611  -10.01219592 -10.01053842 -10.00944391 -10.00909961
 -10.00799421 -10.00782309 -10.0058043  -10.00571386 -10.00274889
  -9.99814127  -9.99206902  -0.86591547  -0.84899431  -0.82549448
  -0.80023376  -0.7876733   -0.763859    -0.75514288  -0.72759267
  -0.70558397  -0.69325443  -0.65720923  -0.63624721  -0.60810166
  -0.59939178  -0.57907357  -0.56633593  -0.55187136  -0.53377914
  -0.52134287  -0.49018294  -0.48634984  -0.47156564  -0.45008076
  -0.43251391  -0.42856168  -0.41256964  -0.41064057  -0.39736992
  -0.39528408  -0.38779005  -0.37206613  -0.36940206  -0.36234789
  -0.35021308  -0.33690277  -0.3244646   -0.31700974  -0.31319123
  -0.30857544  -0.29945569  -0.29361663  -0.28568114  -0.27003031
  -0.25364706  -0.24165098  -0.2357564   -0.20844512  -0.1955694
  -0.17501235  -0.15835322  -0.11412491  -0.02197359   0.03740119
   0.05256359   0.08539272   0.12264906   0.13889006   0.15906867
   0.18152711   0.19865284   0.23227925   0.2349131    0.26721427
   0.27988238   0.30292492   0.30618168   0.32370244   0.3326638
   0.35030777   0.36788684   0.37930551   0.39437319   0.39693368
   0.40576193   0.41424477   0.4318319    0.44425635   0.46108734
   0.47064172   0.50918369   0.52457164   0.55985907   0.56462764
   0.58642613   0.6316733    0.65257334   0.67294268   0.71081266
   0.72522717   0.74846815   0.75061693   0.78163877   0.7944211
   0.81161573   0.81586513   0.84270445   0.88511989   0.91465433
   0.92840205   0.94704603   1.02203879   1.11630562]
nelec by numeric integration = 146.00000196674836
    CPU time for vxc     38.20 sec, wall time     15.82 sec
E1 = -4132.29177659816  Ecoul = 1910.455918053381  Exc = -124.91960388052539
cycle= 3 E= -835.423277489428  delta_E= -0.0544  |g|= 0.158  |ddm|= 0.855
    CPU time for cycle= 3     38.71 sec, wall time     15.91 sec
  HOMO = -0.117264090307268  LUMO = -0.0259347795666824
  mo_energy =
[-10.05083333 -10.04457378 -10.03636761 -10.035646   -10.03437175
 -10.03244485 -10.03197223 -10.03076508 -10.02940043 -10.02663689
 -10.02325704 -10.02166146 -10.02044442 -10.01946563 -10.01764821
 -10.01719673 -10.01634036 -10.01557561 -10.01277756 -10.01273975
 -10.00715795  -9.99795038  -0.86940584  -0.86042661  -0.83069111
  -0.80959937  -0.78982882  -0.7729572   -0.76421944  -0.72440606
  -0.70712307  -0.69572315  -0.65919974  -0.64327162  -0.61203249
  -0.60151196  -0.59144329  -0.57361529  -0.55485613  -0.54001644
  -0.51830701  -0.49534138  -0.48677481  -0.47679345  -0.45666268
  -0.4438407   -0.43311931  -0.42507688  -0.41282324  -0.4035021
  -0.39400636  -0.39257675  -0.37769748  -0.37197117  -0.36317234
  -0.35446344  -0.33946719  -0.32764069  -0.32144991  -0.31787864
  -0.31021285  -0.30234956  -0.29890025  -0.29414551  -0.27409026
  -0.25763091  -0.25188008  -0.24131117  -0.2086478   -0.198158
  -0.17446951  -0.16297971  -0.11726409  -0.02593478   0.03357333
   0.05041971   0.08250932   0.11768679   0.12548309   0.15564396
   0.17361885   0.20336948   0.2229751    0.23081811   0.267543
   0.28351197   0.29407155   0.30690104   0.32426583   0.33194553
   0.33911796   0.35924408   0.37578082   0.38603418   0.39647743
   0.40832728   0.41006358   0.43332641   0.43862391   0.45248038
   0.47139649   0.5061021    0.51469674   0.54465024   0.56226968
   0.58471247   0.6313729    0.65098272   0.66510782   0.69410657
   0.72415069   0.73678217   0.7478669    0.78165394   0.79318226
   0.79867022   0.81672845   0.84764836   0.87123181   0.9209279
   0.92740027   0.94736269   0.99974284   1.09320981]
nelec by numeric integration = 146.000001974974
    CPU time for vxc     37.78 sec, wall time     15.81 sec
E1 = -4132.481391584781  Ecoul = 1910.6514894377701  Exc = -124.93425327267117
cycle= 4 E= -835.431970483805  delta_E= -0.00869  |g|= 0.0553  |ddm|= 0.35
    CPU time for cycle= 4     38.23 sec, wall time     15.88 sec
  HOMO = -0.118070149976267  LUMO = -0.02618309768332
  mo_energy =
[-10.04290186 -10.04285541 -10.03800902 -10.0330581  -10.03071372
 -10.02941644 -10.02844608 -10.02749461 -10.02705756 -10.02570442
 -10.02484015 -10.02355745 -10.02291151 -10.02213651 -10.02155265
 -10.02015846 -10.01610594 -10.01589954 -10.01436666 -10.01209497
 -10.01100157 -10.0053981   -0.86765654  -0.85970379  -0.83044208
  -0.8081897   -0.78911586  -0.77009455  -0.76488521  -0.72723297
  -0.70802448  -0.69567635  -0.65975546  -0.64299539  -0.61292216
  -0.60228289  -0.58872548  -0.57315396  -0.5541831   -0.53977698
  -0.52020919  -0.49409055  -0.48887196  -0.47535767  -0.45543616
  -0.44092916  -0.43479417  -0.42316174  -0.41270814  -0.40235841
  -0.39481972  -0.39294352  -0.37583615  -0.37497093  -0.36493082
  -0.35456962  -0.33926943  -0.32783994  -0.31992323  -0.3189199
  -0.31240981  -0.30101994  -0.29903058  -0.29347839  -0.27363498
  -0.25897122  -0.25012523  -0.24147528  -0.2113184   -0.19773794
  -0.17566615  -0.16312874  -0.11807015  -0.0261831    0.03257759
   0.04962764   0.08108206   0.11601609   0.1282756    0.1574265
   0.17486784   0.20271127   0.22546619   0.23005931   0.26637434
   0.28226278   0.29569826   0.30591784   0.32391019   0.33250012
   0.34128289   0.36152799   0.37386331   0.38889399   0.39480181
   0.40601871   0.41042581   0.42867661   0.44000057   0.45375334
   0.46756841   0.50618301   0.51582891   0.54803047   0.55903378
   0.58272396   0.63102604   0.64859112   0.66653372   0.69708924
   0.7209882    0.74007408   0.74564761   0.77931286   0.79387263
   0.80054484   0.81507106   0.8463441    0.87495563   0.9200473
   0.92646243   0.94682254   1.0048659    1.09908707]
nelec by numeric integration = 146.00000197132482
    CPU time for vxc     37.85 sec, wall time     15.73 sec
E1 = -4132.472386954416  Ecoul = 1910.6397787211529  Exc = -124.93247481076772
cycle= 5 E= -835.432898108154  delta_E= -0.000928  |g|= 0.0272  |ddm|= 0.14
    CPU time for cycle= 5     38.32 sec, wall time     15.80 sec
  HOMO = -0.117472506206266  LUMO = -0.0254943991740907
  mo_energy =
[-10.04315572 -10.03842823 -10.03594387 -10.03219903 -10.02943766
 -10.02922834 -10.0290303  -10.02772703 -10.02594479 -10.024299
 -10.023294   -10.02248856 -10.02052381 -10.0192315  -10.01858471
 -10.01788377 -10.01774819 -10.01628083 -10.01463353 -10.01336498
 -10.01235501 -10.00599494  -0.8670056   -0.85893597  -0.82952229
  -0.80759814  -0.78872025  -0.76981771  -0.76407742  -0.72610908
  -0.70754132  -0.69587476  -0.65877367  -0.64241287  -0.61210936
  -0.60151189  -0.58853293  -0.57244316  -0.55395796  -0.53895223
  -0.5195269   -0.49406589  -0.48764223  -0.47533103  -0.45533596
  -0.44075793  -0.43355076  -0.42255039  -0.41241418  -0.40212465
  -0.39433733  -0.39248171  -0.37551246  -0.37389402  -0.36401487
  -0.35384743  -0.33950413  -0.32739727  -0.31983674  -0.31824088
  -0.3115011   -0.30068194  -0.29895308  -0.29328453  -0.27337144
  -0.25810449  -0.2498484   -0.2411392   -0.21029704  -0.19795842
  -0.17558581  -0.16329579  -0.11747251  -0.0254944    0.03309731
   0.05003538   0.08191177   0.1173448    0.12820039   0.15720415
   0.17509975   0.20248223   0.2253942    0.230855     0.26683571
   0.28304226   0.29552893   0.30601176   0.32415842   0.33238038
   0.3412552    0.36139168   0.37496301   0.388744     0.39508898
   0.40699651   0.41045673   0.43133994   0.43979962   0.45417146
   0.46956567   0.50685439   0.51621566   0.54801489   0.56077996
   0.583723     0.63157987   0.6498854    0.66628186   0.69723081
   0.72284553   0.74004513   0.7469968    0.78074481   0.79417605
   0.80123913   0.81543826   0.84682768   0.87484867   0.92088468
   0.92704482   0.94737906   1.00539456   1.0994552 ]
nelec by numeric integration = 146.0000019696678
    CPU time for vxc     37.80 sec, wall time     15.75 sec
E1 = -4132.427720087643  Ecoul = 1910.5931578332422  Exc = -124.93078671788298
cycle= 6 E= -835.433164036407  delta_E= -0.000266  |g|= 0.00847  |ddm|= 0.0574
    CPU time for cycle= 6     38.26 sec, wall time     15.82 sec
  HOMO = -0.117359314784713  LUMO = -0.0253108867710465
  mo_energy =
[-10.04340122 -10.03888205 -10.03550853 -10.03286372 -10.02926673
 -10.02886403 -10.02849573 -10.0269597  -10.025167   -10.0232989
 -10.02284047 -10.02210085 -10.0196872  -10.01919939 -10.0190641
 -10.01859543 -10.01784717 -10.01683259 -10.01365579 -10.01334359
 -10.0102424  -10.00508655  -0.86684116  -0.85874932  -0.82933455
  -0.80747214  -0.78873052  -0.76953431  -0.76397283  -0.72589365
  -0.70728621  -0.6953972   -0.65871599  -0.64223357  -0.61187869
  -0.60137682  -0.58826654  -0.5722247   -0.55382995  -0.53878376
  -0.51940065  -0.49386625  -0.48766188  -0.47518486  -0.45506308
  -0.440515    -0.43353712  -0.42238407  -0.41223468  -0.4019639
  -0.3942506   -0.3923531   -0.37536615  -0.37358274  -0.36391844
  -0.35381729  -0.339243    -0.3272398   -0.31974665  -0.3181572
  -0.31133227  -0.30044517  -0.29879225  -0.2930936   -0.27313744
  -0.25805091  -0.24960066  -0.24100445  -0.21002965  -0.19775583
  -0.17529223  -0.16285909  -0.11735931  -0.02531089   0.03351546
   0.0502916    0.08222874   0.11737316   0.12851023   0.15734016
   0.17534187   0.20270487   0.22559573   0.23098086   0.26709178
   0.28307059   0.29575535   0.30628544   0.32427958   0.33258282
   0.34146465   0.36171405   0.37525933   0.38882241   0.39565291
   0.40703523   0.41077328   0.43114612   0.44006546   0.45431723
   0.46927459   0.5069496    0.51651575   0.54834513   0.56078852
   0.58385317   0.63174034   0.6499608    0.66662253   0.69771949
   0.72279631   0.74035384   0.74712316   0.780688     0.79440363
   0.8015423    0.81597114   0.84695016   0.8751392    0.92082834
   0.92719133   0.94752139   1.00560931   1.09956352]
nelec by numeric integration = 146.0000019696608
    CPU time for vxc     38.70 sec, wall time     16.03 sec
E1 = -4132.412043499058  Ecoul = 1910.576983580299  Exc = -124.93031245192691
cycle= 7 E= -835.43318743481  delta_E= -2.34e-05  |g|= 0.00254  |ddm|= 0.0151
    CPU time for cycle= 7     39.20 sec, wall time     16.11 sec
  HOMO = -0.117346330160353  LUMO = -0.0252763690334265
  mo_energy =
[-10.04343199 -10.03889431 -10.0356088  -10.03314811 -10.02933616
 -10.02868718 -10.0285047  -10.02682447 -10.02529227 -10.02343853
 -10.02278499 -10.02176866 -10.01970609 -10.01923637 -10.01918482
 -10.01809597 -10.01792512 -10.01682748 -10.01355548 -10.01279529
 -10.01075496 -10.00490892  -0.86685824  -0.8587781   -0.82933268
  -0.80744672  -0.78869082  -0.76949451  -0.76392061  -0.72590548
  -0.7072544   -0.69540773  -0.65868162  -0.64221464  -0.61189061
  -0.60134005  -0.58828911  -0.57223468  -0.55380477  -0.53878787
  -0.51939925  -0.49387411  -0.48754519  -0.47517924  -0.45510336
  -0.44054246  -0.43348135  -0.42239861  -0.41224529  -0.40196617
  -0.39423032  -0.39230232  -0.37538891  -0.3735932   -0.36391576
  -0.35383827  -0.33919637  -0.32721929  -0.31975063  -0.31808788
  -0.31129094  -0.3004706   -0.29875307  -0.29309601  -0.2731264
  -0.25797425  -0.24959307  -0.24094586  -0.21004603  -0.19772046
  -0.17525458  -0.16286404  -0.11734633  -0.02527637   0.03353729
   0.05033166   0.08222095   0.11747314   0.12852296   0.15732122
   0.17536095   0.20276805   0.22558734   0.23100338   0.26705515
   0.28310531   0.29573143   0.30627142   0.32429261   0.33257181
   0.34142833   0.36170124   0.37526096   0.38880896   0.39560573
   0.40705707   0.41079714   0.43110655   0.44010609   0.45429821
   0.4693979    0.50700595   0.51649111   0.54833067   0.56092306
   0.58395245   0.63182548   0.6500789    0.66667236   0.69768229
   0.7228899    0.74033115   0.74711063   0.78079291   0.79439884
   0.80145914   0.81589325   0.8469962    0.87515273   0.9208284
   0.92730112   0.94752935   1.00552335   1.09947468]
nelec by numeric integration = 146.00000196972937
    CPU time for vxc     38.54 sec, wall time     15.89 sec
E1 = -4132.413176180025  Ecoul = 1910.5780943166887  Exc = -124.93029268646332
cycle= 8 E= -835.433189613924  delta_E= -2.18e-06  |g|= 0.000649  |ddm|= 0.00434
    CPU time for cycle= 8     39.04 sec, wall time     15.97 sec
  HOMO = -0.117347777942345  LUMO = -0.025264948625252
  mo_energy =
[-10.04340679 -10.03885295 -10.03554248 -10.03310285 -10.02931931
 -10.02872982 -10.02855188 -10.02683671 -10.02540459 -10.02351774
 -10.02287268 -10.02180478 -10.01966842 -10.01930514 -10.01910935
 -10.01809927 -10.01787248 -10.01676596 -10.01356879 -10.01290033
 -10.01061407 -10.00498443  -0.86685043  -0.85878396  -0.82934387
  -0.80745794  -0.78867863  -0.76953532  -0.76393014  -0.72587987
  -0.70725102  -0.6954007   -0.65867876  -0.64222822  -0.61188596
  -0.60134359  -0.58832171  -0.57225771  -0.55380402  -0.53881418
  -0.51937631  -0.49386904  -0.48755786  -0.47517416  -0.45509689
  -0.44057497  -0.43348526  -0.42241418  -0.41224414  -0.40196356
  -0.39420981  -0.39229518  -0.37538497  -0.37357196  -0.36388976
  -0.35383049  -0.33919219  -0.32722321  -0.31974276  -0.31810519
  -0.31127531  -0.30048497  -0.29874125  -0.29309161  -0.27312525
  -0.25797616  -0.2496145   -0.24094913  -0.2100239   -0.19770777
  -0.17524143  -0.16286403  -0.11734778  -0.02526495   0.03354541
   0.0503311    0.08223398   0.11746695   0.12849468   0.15733842
   0.17534868   0.2027912    0.2255832    0.23100937   0.26709083
   0.28312626   0.29573655   0.30631152   0.32431281   0.33259021
   0.34140842   0.36167068   0.37527858   0.38880971   0.39564214
   0.40708198   0.41079508   0.43114073   0.44009711   0.4543058
   0.46940526   0.50700779   0.51646364   0.54829255   0.56091608
   0.58395284   0.63182225   0.6500835    0.66665625   0.69763406
   0.7228847    0.74031023   0.74713559   0.78078225   0.79440111
   0.80140376   0.81591365   0.84700362   0.8751027    0.92086195
   0.92728009   0.94754994   1.00548882   1.09945388]
nelec by numeric integration = 146.0000019697336
    CPU time for vxc     38.58 sec, wall time     15.90 sec
E1 = -4132.413390654985  Ecoul = 1910.5783596978526  Exc = -124.93034373043514
cycle= 9 E= -835.433189751691  delta_E= -1.38e-07  |g|= 0.000229  |ddm|= 0.00116
    CPU time for cycle= 9     39.16 sec, wall time     15.99 sec
  HOMO = -0.117355158156416  LUMO = -0.0252647230459777
  mo_energy =
[-10.04339868 -10.03888396 -10.03558525 -10.03305854 -10.02931477
 -10.02873552 -10.02855825 -10.02686108 -10.0253835  -10.02347627
 -10.0228831  -10.02180909 -10.01967885 -10.01926302 -10.0191367
 -10.01815953 -10.01789935 -10.01676009 -10.01357391 -10.01289605
 -10.01066169 -10.00496009  -0.86685334  -0.85878762  -0.8293437
  -0.80745735  -0.78867901  -0.76953539  -0.76393782  -0.72589344
  -0.70725409  -0.69540494  -0.65868298  -0.64223101  -0.61189707
  -0.6013502   -0.58831847  -0.57226055  -0.55380773  -0.53881268
  -0.51938278  -0.49386949  -0.48756668  -0.47516946  -0.45510113
  -0.44057031  -0.43349127  -0.42241394  -0.4122435   -0.40196314
  -0.39421766  -0.39230169  -0.37538247  -0.37359115  -0.36390184
  -0.35383079  -0.33919247  -0.3272235   -0.31973095  -0.3181097
  -0.31129114  -0.30048068  -0.29874652  -0.29308629  -0.27313024
  -0.25798206  -0.24961487  -0.2409522   -0.21003885  -0.19770201
  -0.17524258  -0.16286735  -0.11735516  -0.02526472   0.03353552
   0.05033003   0.08222144   0.11745857   0.12849525   0.15735075
   0.17535012   0.20279831   0.22559348   0.23100553   0.26707692
   0.28312532   0.29573868   0.30630136   0.32431143   0.33259082
   0.34141794   0.36168113   0.37526586   0.38881491   0.39562224
   0.4070724    0.41079377   0.43112507   0.44009716   0.4543083
   0.46938991   0.50700018   0.51646895   0.54830109   0.56089868
   0.58393826   0.63181298   0.6500637    0.66665426   0.69764939
   0.72286836   0.74032225   0.74712171   0.78076968   0.79439643
   0.80141341   0.81589433   0.84699982   0.87510217   0.92085507
   0.92726962   0.94753895   1.00550426   1.0994705 ]
nelec by numeric integration = 146.0000019697404
    CPU time for vxc     37.95 sec, wall time     15.73 sec
E1 = -4132.413914643301  Ecoul = 1910.5788895878063  Exc = -124.93034964941057
cycle= 10 E= -835.433189769029  delta_E= -1.73e-08  |g|= 9.02e-05  |ddm|= 0.000426
    CPU time for cycle= 10     38.50 sec, wall time     15.81 sec
  HOMO = -0.117357525535055  LUMO = -0.0252662379769423
  mo_energy =
[-10.04340584 -10.03887629 -10.03557625 -10.03307939 -10.02931417
 -10.02872544 -10.02854825 -10.02685695 -10.02537205 -10.02347568
 -10.02286511 -10.02182539 -10.01968778 -10.01928558 -10.01913468
 -10.01815832 -10.01789772 -10.0167814  -10.01357255 -10.01290726
 -10.01066619 -10.00497183  -0.86685483  -0.85878535  -0.8293458
  -0.80746001  -0.78868622  -0.7695311   -0.76393712  -0.72589533
  -0.70725847  -0.69540887  -0.65868481  -0.6422315   -0.61189657
  -0.60135251  -0.58831398  -0.57225846  -0.55380971  -0.53881271
  -0.51938564  -0.49387179  -0.4875698   -0.47517336  -0.45509981
  -0.44056607  -0.43349135  -0.42241244  -0.41224631  -0.40196488
  -0.39422007  -0.39230374  -0.37538445  -0.37359243  -0.3639025
  -0.35383075  -0.33919562  -0.32722522  -0.31973632  -0.31810964
  -0.31129235  -0.30048083  -0.29875011  -0.29309039  -0.27312978
  -0.25798462  -0.24961167  -0.24095396  -0.21003901  -0.19770903
  -0.17524899  -0.16287152  -0.11735753  -0.02526624   0.03353346
   0.0503254    0.0822216    0.11745521   0.12849896   0.15734284
   0.17534883   0.20278871   0.22558938   0.23100226   0.26707714
   0.2831206    0.29573769   0.30629984   0.32430775   0.33258861
   0.34141847   0.36168345   0.37526363   0.38881344   0.39562099
   0.4070694    0.41079093   0.43112652   0.44009757   0.45430569
   0.46938955   0.50699908   0.51647068   0.54830287   0.56089604
   0.58393643   0.63181198   0.65006189   0.66665415   0.69765114
   0.72286636   0.74031937   0.74712273   0.78076792   0.79439644
   0.80141903   0.81589279   0.84699428   0.87510955   0.92084849
   0.9272657    0.94753598   1.00550465   1.09946833]
nelec by numeric integration = 146.0000019697495
    CPU time for vxc     37.88 sec, wall time     15.73 sec
E1 = -4132.413956453055  Ecoul = 1910.5789323766135  Exc = -124.93035063116953
cycle= 11 E= -835.433189771735  delta_E= -2.71e-09  |g|= 2.93e-05  |ddm|= 0.000158
    CPU time for cycle= 11     38.34 sec, wall time     15.80 sec
  HOMO = -0.117358451497345  LUMO = -0.0252663256770229
  mo_energy =
[-10.04340189 -10.0388786  -10.0355778  -10.03307583 -10.02932202
 -10.0287243  -10.02854728 -10.02686007 -10.02537352 -10.02347849
 -10.02286584 -10.02182036 -10.01968795 -10.01927664 -10.01913723
 -10.01815303 -10.01790088 -10.01677915 -10.01357788 -10.01290394
 -10.01066174 -10.00497568  -0.86685539  -0.85878566  -0.82934549
  -0.80745921  -0.78868587  -0.76953108  -0.76393779  -0.72589588
  -0.70725774  -0.69540795  -0.65868483  -0.64223112  -0.61189622
  -0.60135157  -0.58831428  -0.57225832  -0.55380982  -0.53881272
  -0.51938643  -0.49387138  -0.48756884  -0.47517307  -0.45510017
  -0.44056566  -0.43349174  -0.42241177  -0.41224609  -0.40196493
  -0.39422084  -0.39230412  -0.37538414  -0.37359094  -0.3639035
  -0.35383126  -0.33919603  -0.32722547  -0.31973601  -0.31810934
  -0.31129183  -0.30048055  -0.29875116  -0.29309036  -0.27313012
  -0.25798423  -0.24961215  -0.24095397  -0.21003947  -0.19770865
  -0.17524848  -0.16287072  -0.11735845  -0.02526633   0.03353469
   0.05032574   0.08222147   0.1174563    0.1284987    0.15734365
   0.17534863   0.20278785   0.22559039   0.23100275   0.26707617
   0.28311985   0.29573748   0.30629864   0.32430722   0.33258721
   0.34141863   0.36168294   0.37526452   0.38881532   0.39562161
   0.40706919   0.41079156   0.43112599   0.44009722   0.45430595
   0.46938993   0.50699925   0.5164699    0.5483027    0.56089756
   0.58393703   0.63181158   0.65006284   0.6666538    0.69765142
   0.72286804   0.74032043   0.74712043   0.78076854   0.79439466
   0.8014183    0.81589431   0.84699312   0.87510893   0.92084751
   0.9272673    0.94753493   1.00550616   1.09947026]
nelec by numeric integration = 146.00000196974491
    CPU time for vxc     37.95 sec, wall time     15.78 sec
E1 = -4132.413950452707  Ecoul = 1910.5789258800496  Exc = -124.93035013513261
cycle= 12 E= -835.433189771913  delta_E= -1.78e-10  |g|= 2e-05  |ddm|= 6.42e-05
    CPU time for cycle= 12     38.81 sec, wall time     15.91 sec
  HOMO = -0.117357503580743  LUMO = -0.0252653670837333
  mo_energy =
[-10.04340323 -10.03887734 -10.03557701 -10.03307516 -10.02931729
 -10.02872599 -10.02854896 -10.02685851 -10.02537343 -10.02347751
 -10.0228665  -10.02181805 -10.01968565 -10.01927966 -10.01913542
 -10.01815278 -10.01789679 -10.01677646 -10.01357328 -10.01290217
 -10.01066089 -10.00497365  -0.86685438  -0.85878519  -0.82934476
  -0.80745851  -0.78868451  -0.76953112  -0.7639366   -0.72589465
  -0.70725705  -0.69540724  -0.65868405  -0.64223058  -0.61189557
  -0.60135086  -0.58831449  -0.57225802  -0.55380893  -0.53881204
  -0.5193853   -0.49387087  -0.48756793  -0.47517271  -0.4550997
  -0.44056619  -0.43349101  -0.42241177  -0.41224552  -0.40196448
  -0.39421953  -0.39230289  -0.37538385  -0.3735902   -0.36390223
  -0.35383096  -0.33919518  -0.32722475  -0.31973594  -0.31810879
  -0.31129088  -0.30048032  -0.29874945  -0.29308987  -0.27312953
  -0.25798341  -0.2496119   -0.2409533   -0.21003836  -0.19770811
  -0.17524768  -0.16287021  -0.1173575   -0.02526537   0.03353541
   0.05032651   0.0822224    0.11745734   0.12849853   0.15734383
   0.17534958   0.20278895   0.22559012   0.23100351   0.26707726
   0.28312068   0.29573786   0.30629978   0.32430809   0.33258835
   0.34141854   0.36168284   0.37526538   0.38881451   0.3956228
   0.40707018   0.41079213   0.4311265    0.44009743   0.45430628
   0.46939046   0.50699996   0.51647046   0.54830265   0.56089859
   0.58393839   0.63181245   0.65006402   0.66665422   0.69765137
   0.72286889   0.7403204    0.74712248   0.78076964   0.79439629
   0.80141841   0.81589518   0.84699481   0.87510854   0.92084963
   0.92726856   0.94753692   1.00550558   1.09946964]
nelec by numeric integration = 146.00000196974102
    CPU time for vxc     37.93 sec, wall time     15.76 sec
E1 = -4132.413881623778  Ecoul = 1910.5788548459102  Exc = -124.9303479300583
cycle= 13 E= -835.43318977205  delta_E= -1.37e-10  |g|= 5.39e-06  |ddm|= 3.36e-05
    CPU time for cycle= 13     38.46 sec, wall time     15.84 sec
  HOMO = -0.117357690434541  LUMO = -0.0252653964004497
  mo_energy =
[-10.043403   -10.03887749 -10.03557717 -10.03307547 -10.02931779
 -10.02872572 -10.02854863 -10.02685842 -10.02537396 -10.02347819
 -10.02286624 -10.02181939 -10.01968598 -10.01927926 -10.01913568
 -10.01815365 -10.01789799 -10.01677696 -10.01357456 -10.01290325
 -10.01066152 -10.00497225  -0.86685453  -0.85878534  -0.82934497
  -0.80745883  -0.78868476  -0.76953118  -0.76393695  -0.7258948
  -0.70725727  -0.69540744  -0.65868413  -0.64223079  -0.61189586
  -0.60135114  -0.58831446  -0.57225818  -0.55380912  -0.53881227
  -0.51938544  -0.49387103  -0.48756826  -0.47517272  -0.45509983
  -0.44056625  -0.43349111  -0.42241195  -0.41224556  -0.40196446
  -0.3942198   -0.39230324  -0.3753839   -0.37359061  -0.36390249
  -0.35383095  -0.33919535  -0.32722488  -0.31973587  -0.318109
  -0.31129123  -0.30048048  -0.29874971  -0.29308986  -0.27312963
  -0.25798366  -0.24961194  -0.24095345  -0.21003856  -0.19770802
  -0.17524776  -0.16287037  -0.11735769  -0.0252654    0.03353513
   0.05032636   0.08222214   0.11745687   0.1284986    0.15734388
   0.17534927   0.20278922   0.22559022   0.23100331   0.26707701
   0.28312078   0.29573781   0.30629955   0.32430799   0.33258819
   0.34141853   0.36168298   0.37526502   0.3888145    0.39562233
   0.40707003   0.41079199   0.43112639   0.44009764   0.45430625
   0.46939029   0.5069997    0.5164703    0.5483027    0.56089804
   0.58393786   0.63181243   0.65006355   0.6666543    0.69765125
   0.72286842   0.74032041   0.7471221    0.78076924   0.79439602
   0.80141822   0.81589475   0.84699477   0.87510874   0.92084938
   0.92726796   0.94753652   1.00550541   1.09946952]
nelec by numeric integration = 146.00000196974227
    CPU time for vxc     37.88 sec, wall time     15.81 sec
E1 = -4132.413890354001  Ecoul = 1910.5788643889248  Exc = -124.93034874286039
cycle= 14 E= -835.43318977206  delta_E= -9.55e-12  |g|= 3e-06  |ddm|= 1.12e-05
    CPU time for cycle= 14     38.30 sec, wall time     15.88 sec
  HOMO = -0.117357964758593  LUMO = -0.025265610068974
  mo_energy =
[-10.0434031  -10.03887785 -10.03557733 -10.03307536 -10.02931801
 -10.0287256  -10.02854856 -10.02685895 -10.02537346 -10.02347683
 -10.0228668  -10.02181905 -10.01968699 -10.01927947 -10.01913636
 -10.01815357 -10.01789762 -10.01677794 -10.01357372 -10.01290284
 -10.0106617  -10.00497488  -0.86685472  -0.85878536  -0.82934515
  -0.80745878  -0.78868508  -0.76953119  -0.76393697  -0.72589521
  -0.70725735  -0.69540756  -0.65868442  -0.64223084  -0.61189588
  -0.60135124  -0.58831445  -0.57225823  -0.55380925  -0.53881234
  -0.51938569  -0.49387104  -0.48756845  -0.47517282  -0.45509983
  -0.44056607  -0.43349134  -0.42241184  -0.41224588  -0.40196469
  -0.39421993  -0.39230321  -0.37538399  -0.37359067  -0.36390262
  -0.35383107  -0.33919537  -0.32722505  -0.31973587  -0.31810908
  -0.31129132  -0.30048041  -0.29874998  -0.29309002  -0.27312973
  -0.25798376  -0.24961201  -0.24095353  -0.21003882  -0.19770828
  -0.17524799  -0.1628705   -0.11735796  -0.02526561   0.03353504
   0.05032616   0.082222     0.11745688   0.12849849   0.15734381
   0.17534931   0.20278863   0.22559017   0.23100311   0.26707697
   0.28312036   0.29573778   0.3062996    0.32430785   0.3325882
   0.34141856   0.36168291   0.37526498   0.38881468   0.39562233
   0.40706974   0.41079187   0.43112613   0.44009732   0.4543062
   0.46939004   0.50699968   0.51647033   0.54830265   0.56089801
   0.5839379    0.63181201   0.65006343   0.66665399   0.69765147
   0.72286834   0.74032037   0.74712201   0.7807691    0.79439585
   0.80141836   0.81589467   0.84699407   0.87510854   0.92084877
   0.92726798   0.94753626   1.00550566   1.09946973]
nelec by numeric integration = 146.00000196974239
    CPU time for vxc     38.29 sec, wall time     15.84 sec
E1 = -4132.413921958509  Ecoul = 1910.5788962754905  Exc = -124.93034902490182
Extra cycle  E= -835.433189772043  delta_E= 1.64e-11  |g|= 6.96e-06  |ddm|= 1.65e-05
    CPU time for scf_cycle    626.25 sec, wall time    256.33 sec
    CPU time for SCF    626.25 sec, wall time    256.33 sec
converged SCF energy = -835.433189772043
nelec by numeric integration = 146.00000196974239
    CPU time for vxc     38.84 sec, wall time     16.00 sec
 ** Mulliken pop  **
pop of  0 C 1s            1.99115
pop of  0 C 2s            1.06402
pop of  0 C 2px           0.99993
pop of  0 C 2py           0.98084
pop of  0 C 2pz           0.97868
pop of  1 C 1s            1.99086
pop of  1 C 2s            1.15259
pop of  1 C 2px           0.95670
pop of  1 C 2py           0.93828
pop of  1 C 2pz           0.92404
pop of  2 C 1s            1.99156
pop of  2 C 2s            1.11544
pop of  2 C 2px           0.95548
pop of  2 C 2py           0.97646
pop of  2 C 2pz           0.99930
pop of  3 C 1s            1.99126
pop of  3 C 2s            1.08333
pop of  3 C 2px           1.02745
pop of  3 C 2py           0.98462
pop of  3 C 2pz           0.99963
pop of  4 C 1s            1.99069
pop of  4 C 2s            1.06908
pop of  4 C 2px           1.05389
pop of  4 C 2py           0.98614
pop of  4 C 2pz           1.08029
pop of  5 C 1s            1.99181
pop of  5 C 2s            1.21831
pop of  5 C 2px           0.95000
pop of  5 C 2py           0.93243
pop of  5 C 2pz           0.92573
pop of  6 C 1s            1.99100
pop of  6 C 2s            1.15939
pop of  6 C 2px           0.94169
pop of  6 C 2py           0.97700
pop of  6 C 2pz           0.93924
pop of  7 C 1s            1.99109
pop of  7 C 2s            1.04088
pop of  7 C 2px           1.04259
pop of  7 C 2py           1.09999
pop of  7 C 2pz           1.00388
pop of  8 C 1s            1.99136
pop of  8 C 2s            1.16716
pop of  8 C 2px           0.97986
pop of  8 C 2py           0.94046
pop of  8 C 2pz           0.88906
pop of  9 C 1s            1.99102
pop of  9 C 2s            1.08865
pop of  9 C 2px           0.97883
pop of  9 C 2py           1.00260
pop of  9 C 2pz           0.98523
pop of  10 C 1s           1.99111
pop of  10 C 2s           1.14927
pop of  10 C 2px          0.98280
pop of  10 C 2py          0.94476
pop of  10 C 2pz          0.96845
pop of  11 C 1s           1.99076
pop of  11 C 2s           1.08404
pop of  11 C 2px          1.01682
pop of  11 C 2py          0.98065
pop of  11 C 2pz          1.00521
pop of  12 C 1s           1.99049
pop of  12 C 2s           1.07503
pop of  12 C 2px          1.00113
pop of  12 C 2py          0.98665
pop of  12 C 2pz          0.98501
pop of  13 C 1s           1.99079
pop of  13 C 2s           1.13307
pop of  13 C 2px          0.99193
pop of  13 C 2py          0.95194
pop of  13 C 2pz          0.91342
pop of  14 C 1s           1.99099
pop of  14 C 2s           1.13200
pop of  14 C 2px          0.99121
pop of  14 C 2py          0.95706
pop of  14 C 2pz          0.98120
pop of  15 C 1s           1.99090
pop of  15 C 2s           1.15185
pop of  15 C 2px          0.99215
pop of  15 C 2py          0.93575
pop of  15 C 2pz          0.98300
pop of  16 C 1s           1.99072
pop of  16 C 2s           1.11730
pop of  16 C 2px          0.98228
pop of  16 C 2py          0.93216
pop of  16 C 2pz          0.95898
pop of  17 C 1s           1.99027
pop of  17 C 2s           1.07517
pop of  17 C 2px          1.02297
pop of  17 C 2py          0.96406
pop of  17 C 2pz          0.98174
pop of  18 C 1s           1.99137
pop of  18 C 2s           1.17359
pop of  18 C 2px          1.02360
pop of  18 C 2py          0.91798
pop of  18 C 2pz          1.01193
pop of  19 C 1s           1.99088
pop of  19 C 2s           1.14993
pop of  19 C 2px          0.95201
pop of  19 C 2py          0.94247
pop of  19 C 2pz          0.99780
pop of  20 C 1s           1.99109
pop of  20 C 2s           1.14572
pop of  20 C 2px          0.98352
pop of  20 C 2py          1.02370
pop of  20 C 2pz          0.97140
pop of  21 C 1s           1.99081
pop of  21 C 2s           1.08900
pop of  21 C 2px          1.02930
pop of  21 C 2py          1.04421
pop of  21 C 2pz          1.00853
pop of  22 H 1s           0.92695
pop of  23 H 1s           0.93039
pop of  24 H 1s           0.86637
pop of  25 H 1s           0.99514
pop of  26 H 1s           0.93108
pop of  27 H 1s           0.86666
pop of  28 H 1s           0.95104
pop of  29 H 1s           0.93065
pop of  30 H 1s           0.92571
pop of  31 H 1s           0.92338
pop of  32 H 1s           0.88558
pop of  33 H 1s           0.92105
pop of  34 H 1s           0.88783
pop of  35 H 1s           0.87326
 ** Mulliken atomic charges  **
charge of    0C =     -0.01463
charge of    1C =      0.03753
charge of    2C =     -0.03824
charge of    3C =     -0.08629
charge of    4C =     -0.18008
charge of    5C =     -0.01827
charge of    6C =     -0.00833
charge of    7C =     -0.17843
charge of    8C =      0.03209
charge of    9C =     -0.04632
charge of   10C =     -0.03639
charge of   11C =     -0.07747
charge of   12C =     -0.03832
charge of   13C =      0.01885
charge of   14C =     -0.05246
charge of   15C =     -0.05366
charge of   16C =      0.01856
charge of   17C =     -0.03421
charge of   18C =     -0.11848
charge of   19C =     -0.03308
charge of   20C =     -0.11543
charge of   21C =     -0.16185
charge of   22H =      0.07305
charge of   23H =      0.06961
charge of   24H =      0.13363
charge of   25H =      0.00486
charge of   26H =      0.06892
charge of   27H =      0.13334
charge of   28H =      0.04896
charge of   29H =      0.06935
charge of   30H =      0.07429
charge of   31H =      0.07662
charge of   32H =      0.11442
charge of   33H =      0.07895
charge of   34H =      0.11217
charge of   35H =      0.12674
Dipole moment(X, Y, Z, Debye):  0.16699,  0.39744,  0.40301
nelec by numeric integration = 146.00000196974239
    CPU time for vxc     37.53 sec, wall time     15.70 sec
E1 = -4132.413921958509  Ecoul = 1910.5788962754903  Exc = -124.93034902490182
nelec by numeric integration = 146.00000196974239
    CPU time for vxc     37.99 sec, wall time     15.82 sec
E1 = -4132.413921958509  Ecoul = 1910.5788962754905  Exc = -124.93034902490182
