System: uname_result(system='Linux', node='cosmopc18', release='5.15.0-97-generic', version='#107-Ubuntu SMP Wed Feb 7 13:26:48 UTC 2024', machine='x86_64')  Threads 4
Python 3.11.8 (main, Feb 26 2024, 21:39:34) [GCC 11.2.0]
numpy 1.26.4  scipy 1.11.4
Date: Tue Apr  9 13:49:27 2024
PySCF version 2.3.0
PySCF path  /home/saade/miniconda3/envs/tutorial/lib/python3.11/site-packages/pyscf

[ENV] PYSCFAD_BACKEND torch
[CONFIG] conf_file None
[INPUT] verbose = 5
[INPUT] max_memory = 4000 
[INPUT] num. atoms = 36
[INPUT] num. electrons = 146
[INPUT] charge = 0
[INPUT] spin (= nelec alpha-beta = 2S) = 0
[INPUT] symmetry False subgroup None
[INPUT] Mole.unit = angstrom
[INPUT] Symbol           X                Y                Z      unit          X                Y                Z       unit  Magmom
[INPUT]  1 C      0.019077000000   3.644345000000   0.681745000000 AA    0.036050305278   6.886813953428   1.288311336792 Bohr   0.0
[INPUT]  2 C     -0.064180000000   3.736854000000  -0.573575000000 AA   -0.121282622675   7.061630627485  -1.083899661897 Bohr   0.0
[INPUT]  3 C      0.058862000000   5.005750000000   1.396192000000 AA    0.111233059144   9.459496548042   2.638420497309 Bohr   0.0
[INPUT]  4 C     -0.055237000000   2.612676000000   1.363048000000 AA   -0.104382801943   4.937242092224   2.575787414636 Bohr   0.0
[INPUT]  5 C     -0.109521000000   5.023262000000  -1.494879000000 AA   -0.206964694888   9.492589431935  -2.824911899364 Bohr   0.0
[INPUT]  6 C      0.045687000000   2.462237000000  -1.493817000000 AA    0.086335917453   4.652953583771  -2.822905010219 Bohr   0.0
[INPUT]  7 C      0.044567000000   6.175684000000  -0.580290000000 AA    0.084219424193  11.670351391858  -1.096589172824 Bohr   0.0
[INPUT]  8 C     -0.223852000000   6.057246000000   0.684111000000 AA   -0.423018972436  11.446536009117   1.292782428802 Bohr   0.0
[INPUT]  9 C     -0.030856000000   1.405400000000   0.623631000000 AA   -0.058309389300   2.655821095464   1.178491792789 Bohr   0.0
[INPUT] 10 C     -0.261973000000   1.222190000000  -0.636878000000 AA   -0.495057222031   2.309604372182  -1.203524994761 Bohr   0.0
[INPUT] 11 C      0.099769000000  -0.029286000000   1.450528000000 AA    0.188536085722  -0.055342519284   2.741100656013 Bohr   0.0
[INPUT] 12 C      0.063095000000   0.062368000000  -1.359789000000 AA    0.119232269829   0.117858438937  -2.569628797196 Bohr   0.0
[INPUT] 13 C     -0.159228000000  -1.413932000000   0.629744000000 AA   -0.300897311362  -2.671944238759   1.190043688588 Bohr   0.0
[INPUT] 14 C      0.092436000000  -1.406078000000  -0.776298000000 AA    0.174678724050  -2.657102329776  -1.466990611048 Bohr   0.0
[INPUT] 15 C      0.067182000000  -2.438130000000   1.528917000000 AA    0.126955580501  -4.607397956086   2.889234397192 Bohr   0.0
[INPUT] 16 C      0.103295000000  -2.352612000000  -1.354564000000 AA    0.195199260037  -4.445792357365  -2.559754978195 Bohr   0.0
[INPUT] 17 C      0.103600000000  -3.761883000000   0.714154000000 AA    0.195775626505  -7.108928582657   1.349555470763 Bohr   0.0
[INPUT] 18 C      0.024803000000  -3.463395000000  -0.731807000000 AA    0.046870877068  -6.544868011188  -1.382914806040 Bohr   0.0
[INPUT] 19 C     -0.178849000000  -4.920534000000   1.490859000000 AA   -0.337975627652  -9.298461646611   2.817315200343 Bohr   0.0
[INPUT] 20 C      0.006716000000  -5.041015000000  -1.488603000000 AA    0.012691400653  -9.526137739824  -2.813051978206 Bohr   0.0
[INPUT] 21 C     -0.101977000000  -6.065067000000   0.678594000000 AA   -0.192708601005 -11.461315557137   1.282356809773 Bohr   0.0
[INPUT] 22 C     -0.146951000000  -6.079007000000  -0.783347000000 AA   -0.277697143731 -11.487658339314  -1.480311290500 Bohr   0.0
[INPUT] 23 H      0.064401000000   5.059422000000   2.528240000000 AA    0.121700252148   9.560921928599   4.777681177170 Bohr   0.0
[INPUT] 24 H     -0.105987000000   2.365161000000   2.533082000000 AA   -0.200286402764   4.469506530502   4.786831231066 Bohr   0.0
[INPUT] 25 H     -0.042657000000   4.818493000000  -2.495089000000 AA   -0.080610047296   9.105632103134  -4.715034866415 Bohr   0.0
[INPUT] 26 H     -0.023155000000   2.544501000000  -2.555605000000 AA   -0.043756608414   4.808410013682  -4.829393532569 Bohr   0.0
[INPUT] 27 H      0.075684000000   7.033411000000  -1.200118000000 AA    0.143022032012  13.291220511503  -2.267894337161 Bohr   0.0
[INPUT] 28 H      0.005160000000   7.063615000000   1.230659000000 AA    0.009750986803  13.348297799370   2.325608462731 Bohr   0.0
[INPUT] 29 H      0.060314000000   0.132656000000   2.398328000000 AA    0.113976941477   0.250683508780   4.532183076876 Bohr   0.0
[INPUT] 30 H     -0.063112000000   0.024844000000  -2.532381000000 AA   -0.119264395174   0.046948355839  -4.785506533052 Bohr   0.0
[INPUT] 31 H      0.036383000000  -2.559083000000   2.563398000000 AA    0.068753905590  -4.835966000030   4.844120168258 Bohr   0.0
[INPUT] 32 H     -0.309930000000  -2.417509000000  -2.575988000000 AA   -0.585682817786  -4.568429913671  -4.867911820166 Bohr   0.0
[INPUT] 33 H     -0.065771000000  -5.107093000000   2.484150000000 AA   -0.124289176939  -9.651007062683   4.694363152338 Bohr   0.0
[INPUT] 34 H     -0.044707000000  -4.800046000000  -2.408092000000 AA   -0.084483985851  -9.070772325314  -4.550634362756 Bohr   0.0
[INPUT] 35 H     -0.042084000000  -7.147149000000   1.402327000000 AA   -0.079527234226 -13.506154181459   2.650013967083 Bohr   0.0
[INPUT] 36 H     -0.104959000000  -7.062963000000  -1.350675000000 AA   -0.198343764308 -13.347065697936  -2.552405833297 Bohr   0.0
[INPUT] ---------------- BASIS SET ---------------- 
[INPUT] l, kappa, [nprim/nctr], expnt,             c_1 c_2 ...
[INPUT] H
[INPUT] 0    0    [3    /1   ]  3.42525091        0.15432897
                                0.62391373        0.53532814
                                0.1688554         0.44463454
[INPUT] C
[INPUT] 0    0    [3    /1   ]  71.616837         0.15432897
                                13.045096         0.53532814
                                3.5305122         0.44463454
[INPUT] 0    0    [3    /1   ]  2.9412494         -0.09996723
                                0.6834831         0.39951283
                                0.2222899         0.70011547
[INPUT] 1    0    [3    /1   ]  2.9412494         0.15591627
                                0.6834831         0.60768372
                                0.2222899         0.39195739

nuclear repulsion = 1488.26761665671
number of shells = 80
number of NR pGTOs = 372
number of NR cGTOs = 124
basis = sto3g
ecp = {}
CPU time:     36274.48
atom C rad-grids = 99, ang-grids = [ 50  50  50  50  50  50  50  50  50  50  50  50  50  50  50  50  50  50
  50  50  50  50  50  50  50  50  50  50  50  50  50  86  86  86  86  86
  86  86  86  86  86  86  86 434 434 434 434 434 434 434 434 434 590 590
 590 590 590 590 590 590 590 590 590 590 590 590 590 590 590 590 590 590
 590 590 590 590 590 590 590 434 434 434 434 434 434 434 434 434 434 434
 434 434 434 434 434 434 434 434 434]
atom H rad-grids = 99, ang-grids = [ 50  50  50  50  50  50  50  50  50  50  50  50  50  50  50  50  50  50
  50  50  50  50  50  50  50  50  50  50  86  86  86  86  86  86  86 434
 434 434 434 434 434 434 434 590 590 590 590 590 590 590 590 590 590 590
 590 590 590 590 590 590 590 590 590 590 590 590 590 590 590 434 434 434
 434 434 434 434 434 434 434 434 434 434 434 434 434 434 434 434 434 434
 434 434 434 434 434 434 434 434 434]
tot_boxes 5270, boxes in each direction [ 8 29 15]
Padding 0 grids
tot grids = 1157832


******** <class 'pyscf.dft.rks.RKS'> ********
method = RKS
initial guess = minao
damping factor = 0
level_shift factor = 0
DIIS = <class 'pyscf.scf.diis.CDIIS'>
diis_start_cycle = 1
diis_space = 8
SCF conv_tol = 1e-10
SCF conv_tol_grad = None
SCF max_cycles = 50
direct_scf = True
direct_scf_tol = 1e-13
chkfile to save SCF result = /home/saade/mlelec/tutorials/tmpjnjwqtwj
max_memory 4000 MB (current use 637 MB)
XC library pyscf.dft.libxc version 6.1.0
    S. Lehtola, C. Steigemann, M. J.T. Oliveira, and M. A.L. Marques.,  SoftwareX 7, 1–5 (2018)
XC functionals = b3lypg
    P. J. Stephens, F. J. Devlin, C. F. Chabalowski, and M. J. Frisch.,  J. Phys. Chem. 98, 11623 (1994)
radial grids: 
    Treutler-Ahlrichs [JCP 102, 346 (1995); DOI:10.1063/1.469408] (M4) radial grids
    
becke partition: Becke, JCP 88, 2547 (1988); DOI:10.1063/1.454033
pruning grids: <function nwchem_prune at 0x7f9db5616ca0>
grids dens level: 3
symmetrized grids: False
atomic radii adjust function: <function treutler_atomic_radii_adjust at 0x7f9db5617380>
User specified grid scheme (99, 590)
small_rho_cutoff = 1e-07
Set gradient conv threshold to 1e-05
Initial guess from minao.
nelec by numeric integration = 145.26856890719475
    CPU time for vxc     38.01 sec, wall time     15.64 sec
E1 = -4076.891473699968  Ecoul = 1873.4693314785568  Exc = -125.89597605106187
init E= -841.050501615764
cond(S) = 30.234210789935563
    CPU time for initialize scf     46.99 sec, wall time     17.85 sec
  HOMO = -0.189751838711372  LUMO = -0.151252639920731
  mo_energy =
[-1.01746850e+01 -1.01592791e+01 -1.01418624e+01 -1.01175364e+01
 -1.01155437e+01 -1.01110954e+01 -1.01065635e+01 -1.01023202e+01
 -1.00982694e+01 -1.00973812e+01 -1.00957971e+01 -1.00955829e+01
 -1.00953708e+01 -1.00948654e+01 -1.00933441e+01 -1.00899173e+01
 -1.00836831e+01 -1.00828905e+01 -1.00814615e+01 -1.00763039e+01
 -1.00737349e+01 -1.00685120e+01 -1.11930559e+00 -1.09464147e+00
 -1.01519505e+00 -9.95924924e-01 -9.49859562e-01 -9.33153582e-01
 -8.89139604e-01 -8.73074503e-01 -8.52079960e-01 -8.33809011e-01
 -7.74698450e-01 -7.50751572e-01 -7.10958636e-01 -7.05791747e-01
 -7.04227894e-01 -6.83544398e-01 -6.75063399e-01 -6.30473298e-01
 -5.88533595e-01 -5.75625206e-01 -5.55387861e-01 -5.51117520e-01
 -5.44099039e-01 -5.22918427e-01 -5.17839584e-01 -5.10957762e-01
 -4.94020432e-01 -4.93337215e-01 -4.72034009e-01 -4.64540852e-01
 -4.60326104e-01 -4.53975764e-01 -4.42115334e-01 -4.26540698e-01
 -4.16919680e-01 -4.11854708e-01 -4.04890013e-01 -3.88764175e-01
 -3.81666705e-01 -3.71269020e-01 -3.56034651e-01 -3.51964663e-01
 -3.49944262e-01 -3.29708663e-01 -3.06938482e-01 -2.99429144e-01
 -2.92973159e-01 -2.77360044e-01 -2.57458350e-01 -2.36308448e-01
 -1.89751839e-01 -1.51252640e-01 -1.03279264e-01 -8.32160263e-02
 -5.38878275e-02 -4.60640720e-02 -1.99007792e-02 -6.51921144e-04
  4.07964971e-02  5.85674645e-02  7.97949857e-02  1.11373903e-01
  1.27019880e-01  1.35515807e-01  1.56922867e-01  1.62826084e-01
  1.67462004e-01  1.84713183e-01  2.06420282e-01  2.10666255e-01
  2.16927720e-01  2.31649156e-01  2.45116630e-01  2.55886645e-01
  2.74501587e-01  2.86273665e-01  2.97314898e-01  3.07617619e-01
  3.20224005e-01  3.39105105e-01  3.57995832e-01  3.65698763e-01
  3.85826368e-01  4.07383573e-01  4.27477266e-01  4.35394828e-01
  4.61189866e-01  4.75085631e-01  4.96827594e-01  5.15954208e-01
  5.25611369e-01  5.47406633e-01  5.69073661e-01  6.03773416e-01
  6.15441050e-01  6.57518640e-01  6.72032498e-01  6.95594535e-01
  7.36421982e-01  7.70190325e-01  8.07433385e-01  9.76006827e-01]
nelec by numeric integration = 145.99999575564533
    CPU time for vxc     38.33 sec, wall time     15.86 sec
E1 = -4093.0084479503225  Ecoul = 1893.7764292978704  Exc = -124.60953360820466
cycle= 1 E= -835.573935603948  delta_E= 5.48  |g|= 0.315  |ddm|= 9.24
    CPU time for cycle= 1     38.61 sec, wall time     15.94 sec
  HOMO = -0.0608655536896548  LUMO = 0.00875762552452914
  mo_energy =
[-1.00493605e+01 -1.00270451e+01 -1.00211672e+01 -1.00192762e+01
 -1.00075250e+01 -9.99870211e+00 -9.99613970e+00 -9.99290407e+00
 -9.98492953e+00 -9.97139724e+00 -9.96820629e+00 -9.96450229e+00
 -9.96250170e+00 -9.96011526e+00 -9.95834200e+00 -9.95762030e+00
 -9.95268674e+00 -9.94985460e+00 -9.93870338e+00 -9.93650562e+00
 -9.93024800e+00 -9.92156614e+00 -8.34416671e-01 -8.09214172e-01
 -7.89914295e-01 -7.62114779e-01 -7.35120576e-01 -7.14129117e-01
 -6.98315509e-01 -6.84208178e-01 -6.61447857e-01 -6.43792306e-01
 -5.98055017e-01 -5.88636600e-01 -5.70956124e-01 -5.61748131e-01
 -5.48143842e-01 -5.42052637e-01 -5.37873601e-01 -4.90116286e-01
 -4.72696906e-01 -4.53839713e-01 -4.45841381e-01 -4.35161748e-01
 -4.25155889e-01 -4.19518611e-01 -4.02992579e-01 -3.86733957e-01
 -3.85689327e-01 -3.77730115e-01 -3.55795568e-01 -3.51353736e-01
 -3.41848986e-01 -3.40515942e-01 -3.23554976e-01 -3.22750051e-01
 -3.09673165e-01 -2.98594384e-01 -2.96039585e-01 -2.81520193e-01
 -2.69752784e-01 -2.64082113e-01 -2.41193372e-01 -2.36432054e-01
 -2.24656289e-01 -2.12145339e-01 -2.04688693e-01 -1.90350199e-01
 -1.81372568e-01 -1.60626121e-01 -1.49673994e-01 -1.17222263e-01
 -6.08655537e-02  8.75762552e-03  4.33396017e-02  7.17091319e-02
  1.05147745e-01  1.11516199e-01  1.34548079e-01  1.72301508e-01
  1.94720683e-01  2.11199599e-01  2.32545246e-01  2.41875945e-01
  2.82478345e-01  3.01808760e-01  3.15097522e-01  3.19745978e-01
  3.37142036e-01  3.51541035e-01  3.54551067e-01  3.73019534e-01
  3.75460741e-01  3.85597279e-01  3.94667474e-01  3.98516061e-01
  4.30237378e-01  4.38950914e-01  4.48190509e-01  4.57889377e-01
  4.75831160e-01  4.83367228e-01  4.97612741e-01  5.16572616e-01
  5.36816060e-01  5.62291816e-01  5.66507800e-01  5.86270325e-01
  5.95547543e-01  6.40594722e-01  6.43646697e-01  6.59449910e-01
  6.64711224e-01  6.96060033e-01  7.31545137e-01  7.52160198e-01
  7.89420875e-01  8.38949838e-01  8.52365651e-01  8.61830080e-01
  9.34272412e-01  9.48590894e-01  1.01134071e+00  1.20360168e+00]
nelec by numeric integration = 145.9999956824393
    CPU time for vxc     37.87 sec, wall time     15.75 sec
E1 = -4086.5067028969615  Ecoul = 1887.1395335877364  Exc = -124.43869761675322
cycle= 2 E= -835.538250269269  delta_E= 0.0357  |g|= 0.46  |ddm|= 1.18
    CPU time for cycle= 2     38.39 sec, wall time     15.83 sec
  HOMO = -0.0800262358825965  LUMO = -0.00623608842818133
  mo_energy =
[-1.00255003e+01 -1.00239784e+01 -1.00235244e+01 -1.00217121e+01
 -1.00155740e+01 -1.00132757e+01 -1.00130787e+01 -1.00058758e+01
 -1.00042516e+01 -1.00027171e+01 -1.00008569e+01 -1.00006727e+01
 -1.00000585e+01 -9.99960199e+00 -9.99907136e+00 -9.99705325e+00
 -9.99613210e+00 -9.99487965e+00 -9.99170253e+00 -9.96579830e+00
 -9.96389792e+00 -9.93206154e+00 -8.67131034e-01 -8.48383092e-01
 -7.93625987e-01 -7.83887472e-01 -7.47428960e-01 -7.38610572e-01
 -7.05207010e-01 -6.93267371e-01 -6.76596759e-01 -6.64478137e-01
 -6.23104290e-01 -5.95715276e-01 -5.75969566e-01 -5.71679478e-01
 -5.63471705e-01 -5.55561612e-01 -5.50219787e-01 -5.05678304e-01
 -4.81299328e-01 -4.69173792e-01 -4.52567607e-01 -4.46498115e-01
 -4.43315453e-01 -4.28443701e-01 -4.14681627e-01 -4.10741482e-01
 -3.91500367e-01 -3.79202804e-01 -3.71046112e-01 -3.65106855e-01
 -3.60393343e-01 -3.55768003e-01 -3.50778659e-01 -3.33090905e-01
 -3.20232664e-01 -3.16037044e-01 -3.00464546e-01 -2.95436267e-01
 -2.87277462e-01 -2.84135467e-01 -2.61552262e-01 -2.56347747e-01
 -2.42127556e-01 -2.33665999e-01 -2.12674538e-01 -2.00830339e-01
 -1.95642841e-01 -1.75865371e-01 -1.56812404e-01 -1.34498756e-01
 -8.00262359e-02 -6.23608843e-03  3.93590550e-02  5.64717499e-02
  8.96550933e-02  1.01649476e-01  1.23153357e-01  1.46912793e-01
  1.81421678e-01  2.05948358e-01  2.24263071e-01  2.47775614e-01
  2.53438912e-01  2.82929775e-01  2.97772432e-01  3.03415099e-01
  3.13207914e-01  3.20933299e-01  3.50262900e-01  3.56360786e-01
  3.67395618e-01  3.81322243e-01  3.90399597e-01  3.97136770e-01
  4.08146084e-01  4.30425185e-01  4.42051285e-01  4.48535571e-01
  4.67270304e-01  4.85980785e-01  4.87351226e-01  5.00609760e-01
  5.20404884e-01  5.57380606e-01  5.65760639e-01  5.69331848e-01
  5.97655926e-01  6.14488744e-01  6.31511566e-01  6.51832111e-01
  6.58425866e-01  6.99524550e-01  7.03833422e-01  7.45842089e-01
  7.51894482e-01  8.04307430e-01  8.22057544e-01  8.43612114e-01
  8.91338626e-01  9.21975537e-01  9.58363859e-01  1.15021940e+00]
nelec by numeric integration = 145.99999570354646
    CPU time for vxc     38.07 sec, wall time     15.70 sec
E1 = -4088.8107660820656  Ecoul = 1889.4505248334485  Exc = -124.4809915083435
cycle= 3 E= -835.573616100251  delta_E= -0.0354  |g|= 0.33  |ddm|= 1.16
    CPU time for cycle= 3     38.54 sec, wall time     15.78 sec
  HOMO = -0.088012978826182  LUMO = -0.0153799458243857
  mo_energy =
[-10.04793276 -10.04339265 -10.02981052 -10.02432168 -10.01896107
 -10.01610923 -10.01499738 -10.01355106 -10.01123342 -10.01000971
 -10.00971236 -10.00916296 -10.00620404 -10.00526485 -10.00477615
 -10.0035201  -10.00135168 -10.00118845  -9.99636496  -9.9925422
  -9.99231741  -9.96148908  -0.8794171   -0.85417381  -0.80039106
  -0.78857674  -0.75657954  -0.74158845  -0.70904371  -0.70010084
  -0.6848784   -0.66964409  -0.62232987  -0.60707449  -0.58381204
  -0.57799459  -0.57407295  -0.55809722  -0.55356067  -0.51087574
  -0.48537775  -0.47249879  -0.45494768  -0.45213688  -0.44592078
  -0.42967792  -0.42338045  -0.41283975  -0.40314474  -0.38691846
  -0.37581016  -0.37096831  -0.36688403  -0.36197756  -0.35585748
  -0.34136355  -0.32642127  -0.32324739  -0.30689472  -0.29999292
  -0.29155531  -0.28795031  -0.26835103  -0.2596624   -0.25271205
  -0.23701759  -0.22006324  -0.20700899  -0.20120896  -0.18603623
  -0.16342478  -0.14131876  -0.08801298  -0.01537995   0.03101725
   0.04959424   0.08318015   0.09314215   0.11890524   0.13850676
   0.17478181   0.19820767   0.2170187    0.24977113   0.25435952
   0.28212096   0.29224762   0.30245865   0.30567915   0.31436489
   0.346174     0.34964585   0.35560662   0.37059454   0.37944162
   0.39624204   0.40424141   0.42339303   0.43605892   0.43949983
   0.46059132   0.47623318   0.48267579   0.4956247    0.51309182
   0.53813323   0.55928867   0.56607035   0.59476895   0.6142964
   0.63124927   0.64586605   0.65517733   0.68643679   0.69862867
   0.74477611   0.75187801   0.80044848   0.8142027    0.83458054
   0.88408558   0.91192472   0.95566401   1.13102737]
nelec by numeric integration = 145.9999957236203
    CPU time for vxc     38.19 sec, wall time     15.74 sec
E1 = -4089.5305989439735  Ecoul = 1890.151972073051  Exc = -124.49249646432014
cycle= 4 E= -835.603506678533  delta_E= -0.0299  |g|= 0.176  |ddm|= 0.805
    CPU time for cycle= 4     38.51 sec, wall time     15.79 sec
  HOMO = -0.0904842596424004  LUMO = -0.0198407663528184
  mo_energy =
[-10.03971449 -10.03546382 -10.02715847 -10.02353925 -10.02223753
 -10.01954542 -10.01700965 -10.01464063 -10.01451947 -10.01074474
 -10.01038687 -10.0096091  -10.00925138 -10.00748838 -10.00736428
 -10.00641665 -10.00396067 -10.00336092 -10.00154738 -10.00113303
  -9.99493138  -9.9915299   -0.87632631  -0.85269798  -0.79956681
  -0.79283732  -0.75446624  -0.74685606  -0.71302063  -0.70259667
  -0.68396732  -0.67061213  -0.62531786  -0.60813439  -0.5838804
  -0.58009337  -0.57458817  -0.56064364  -0.55687104  -0.51036777
  -0.48586841  -0.47303098  -0.45640287  -0.45250502  -0.44792273
  -0.43261513  -0.42430048  -0.4130769   -0.40384059  -0.38656287
  -0.37641143  -0.3714908   -0.36741974  -0.36144532  -0.35765618
  -0.34026541  -0.32806926  -0.32444391  -0.30884295  -0.29991199
  -0.2939965   -0.29086907  -0.26753541  -0.26422419  -0.25110141
  -0.24111126  -0.22143499  -0.21057992  -0.2058621   -0.18756257
  -0.1650872   -0.14369741  -0.09048426  -0.01984077   0.02807554
   0.04826918   0.08158586   0.08935703   0.11524285   0.13924573
   0.17559902   0.19778182   0.21473919   0.24741563   0.25268006
   0.27769779   0.29092661   0.30265615   0.30579006   0.31357615
   0.34314165   0.34924587   0.35624606   0.37451177   0.37806198
   0.39227181   0.40054765   0.42212421   0.43431213   0.43907761
   0.45829551   0.47523461   0.47957889   0.49714603   0.51474333
   0.54062254   0.55920887   0.56145712   0.59130438   0.61020012
   0.62646002   0.64217803   0.64921195   0.69061742   0.69281
   0.74016217   0.74969394   0.80074447   0.81482358   0.83357172
   0.88570035   0.91240562   0.95718867   1.13727443]
nelec by numeric integration = 145.9999957188569
    CPU time for vxc     37.73 sec, wall time     15.60 sec
E1 = -4089.4193767588067  Ecoul = 1890.0296731656722  Exc = -124.49254289980776
cycle= 5 E= -835.614629836234  delta_E= -0.0111  |g|= 0.0556  |ddm|= 0.367
    CPU time for cycle= 5     38.34 sec, wall time     15.70 sec
  HOMO = -0.0885067421291303  LUMO = -0.0172967838264058
  mo_energy =
[-10.03501913 -10.03011168 -10.02784163 -10.02497364 -10.02455308
 -10.02131089 -10.02041024 -10.01723114 -10.01628845 -10.01262907
 -10.0111272  -10.0104129  -10.0095826  -10.00857533 -10.00737775
 -10.00696178 -10.00636741 -10.00472346  -9.99668397  -9.99550523
  -9.9952072   -9.98192829  -0.87447545  -0.8526381   -0.7997151
  -0.7942342   -0.75373841  -0.74688666  -0.71232104  -0.70207422
  -0.6840433   -0.67034923  -0.62368746  -0.60716201  -0.58280418
  -0.57983942  -0.57343558  -0.55947322  -0.55683038  -0.51051977
  -0.48613661  -0.47279692  -0.45582139  -0.45271686  -0.44823498
  -0.43245972  -0.42391929  -0.41341755  -0.40220585  -0.38518597
  -0.37626362  -0.37207655  -0.36786412  -0.36149233  -0.35821117
  -0.34064572  -0.32602684  -0.32428393  -0.30924499  -0.29988056
  -0.29454426  -0.29116988  -0.26727598  -0.26280051  -0.25102233
  -0.24092243  -0.22151231  -0.20980267  -0.2056038   -0.18657283
  -0.16601667  -0.14325052  -0.08850674  -0.01729678   0.02845318
   0.04780348   0.08220227   0.09046981   0.11517913   0.13902023
   0.17549849   0.19754996   0.214122     0.24653191   0.25250018
   0.27941724   0.29106297   0.30301958   0.30629191   0.31498255
   0.3423393    0.35003588   0.35766895   0.37519724   0.37968722
   0.39054855   0.40291767   0.42264837   0.43429476   0.43932116
   0.45900137   0.47630644   0.47820287   0.49679627   0.51490695
   0.54269737   0.55893769   0.56070835   0.59025921   0.61169048
   0.62831071   0.64410736   0.64925063   0.6908852    0.69251706
   0.73958683   0.74864014   0.8003822    0.81570672   0.83331275
   0.8858787    0.91273498   0.9563767    1.14052346]
nelec by numeric integration = 145.99999572086412
    CPU time for vxc     38.25 sec, wall time     15.74 sec
E1 = -4089.422529280061  Ecoul = 1890.0322293137046  Exc = -124.49293929193911
cycle= 6 E= -835.615622601586  delta_E= -0.000993  |g|= 0.0216  |ddm|= 0.112
    CPU time for cycle= 6     38.63 sec, wall time     15.81 sec
  HOMO = -0.0888188201863356  LUMO = -0.0171337892087286
  mo_energy =
[-10.03624399 -10.03067073 -10.02583048 -10.02537837 -10.02167001
 -10.01788264 -10.01684113 -10.01675392 -10.01472627 -10.01076549
 -10.01031888 -10.00872901 -10.00711433 -10.0066985  -10.00579991
 -10.00551138 -10.00541496 -10.00525281  -9.9981157   -9.99559154
  -9.99520364  -9.98406353  -0.8747207   -0.85165445  -0.79881179
  -0.79242359  -0.75334355  -0.74592096  -0.71163206  -0.70144196
  -0.6835049   -0.66978974  -0.62349835  -0.60677693  -0.58245938
  -0.57912556  -0.57320944  -0.55937644  -0.55613106  -0.50997657
  -0.48550269  -0.47236578  -0.4553511   -0.45210975  -0.44756848
  -0.43193003  -0.42340955  -0.41283811  -0.40207567  -0.38526018
  -0.37565429  -0.37096713  -0.36729181  -0.36084335  -0.35737079
  -0.34004355  -0.32616003  -0.32403704  -0.30823204  -0.29943368
  -0.29353419  -0.29037749  -0.26712527  -0.26272356  -0.25042436
  -0.24035174  -0.22092054  -0.20939688  -0.2049462   -0.18630222
  -0.16507146  -0.14281789  -0.08881882  -0.01713379   0.02930056
   0.04862819   0.0826099    0.09078562   0.11608318   0.13977474
   0.17569292   0.19836649   0.215232     0.24749401   0.25310832
   0.2794341    0.29152562   0.3035937    0.30657313   0.31512684
   0.34358927   0.35006749   0.35776049   0.3748045    0.37973928
   0.39241816   0.40267585   0.42293917   0.43512998   0.43984557
   0.4593917    0.47671644   0.47974442   0.49727199   0.51519469
   0.54271051   0.55974041   0.56187475   0.59164953   0.61167536
   0.62842781   0.64403779   0.65021733   0.69132706   0.69353858
   0.7408093    0.74994895   0.80130921   0.81606001   0.83428274
   0.88687745   0.9131785    0.95763112   1.13984275]
nelec by numeric integration = 145.9999957195592
    CPU time for vxc     38.22 sec, wall time     15.77 sec
E1 = -4089.3824190187383  Ecoul = 1889.9895044441541  Exc = -124.49048463799222
cycle= 7 E= -835.615782555868  delta_E= -0.00016  |g|= 0.00554  |ddm|= 0.0364
    CPU time for cycle= 7     38.82 sec, wall time     15.86 sec
  HOMO = -0.0887051801450579  LUMO = -0.0169189180129448
  mo_energy =
[-10.03617472 -10.0309594  -10.02633102 -10.02404408 -10.02195186
 -10.01726219 -10.01685511 -10.01618588 -10.01555391 -10.01057132
 -10.00970563 -10.00790216 -10.0074799  -10.00681031 -10.00576756
 -10.0055556  -10.00532674 -10.00512375  -9.99689639  -9.9957515
  -9.99459499  -9.98389159  -0.8744107   -0.85173445  -0.7987963
  -0.79245189  -0.75324729  -0.74566232  -0.71146576  -0.70131018
  -0.68327135  -0.66967679  -0.62337503  -0.60666697  -0.58241489
  -0.57905264  -0.57309871  -0.55913447  -0.55591431  -0.50991698
  -0.48542661  -0.47230779  -0.45521024  -0.45200602  -0.44752071
  -0.43176051  -0.42323828  -0.41274453  -0.40201344  -0.38502295
  -0.37556244  -0.37087701  -0.36722194  -0.36085569  -0.35729594
  -0.34003996  -0.32600318  -0.32400596  -0.30820735  -0.29936938
  -0.2935326   -0.29035666  -0.26688379  -0.26250585  -0.25041289
  -0.24007578  -0.22074226  -0.20917953  -0.20472991  -0.18614225
  -0.16488617  -0.14269432  -0.08870518  -0.01691892   0.02944303
   0.04880791   0.08287387   0.09103988   0.11629543   0.13978593
   0.17591041   0.1983914    0.21525525   0.24738387   0.25310084
   0.27978231   0.29167532   0.30360215   0.30660602   0.31522837
   0.3438713    0.35034277   0.35783648   0.37498961   0.38000694
   0.39217499   0.40300958   0.42317219   0.43534176   0.43998727
   0.45959824   0.47676693   0.47968727   0.4973048    0.51522848
   0.54281175   0.55981665   0.56206822   0.59169671   0.61205762
   0.62865079   0.64431159   0.65032963   0.69149933   0.69359051
   0.74111341   0.74995269   0.8012656    0.81608623   0.8343727
   0.88675878   0.91342888   0.95753022   1.13995188]
nelec by numeric integration = 145.99999571966498
    CPU time for vxc     37.56 sec, wall time     15.50 sec
E1 = -4089.36652190281  Ecoul = 1889.9734717863057  Exc = -124.49035869137562
cycle= 8 E= -835.615792151171  delta_E= -9.6e-06  |g|= 0.00134  |ddm|= 0.00874
    CPU time for cycle= 8     38.11 sec, wall time     15.59 sec
  HOMO = -0.0887163157062336  LUMO = -0.016897165102751
  mo_energy =
[-10.03629007 -10.03112335 -10.02643634 -10.02418913 -10.02190921
 -10.01757918 -10.01676578 -10.01639476 -10.01543518 -10.0106876
 -10.00988497 -10.00831664 -10.00748467 -10.00678803 -10.00572851
 -10.00538041 -10.00518544 -10.00491846  -9.99708104  -9.99559386
  -9.99458166  -9.98374707  -0.87454851  -0.85174561  -0.79876564
  -0.7924829   -0.75324709  -0.74577136  -0.7115042   -0.70134288
  -0.68333156  -0.66966947  -0.62337773  -0.60666279  -0.5824284
  -0.5790756   -0.57311171  -0.55919741  -0.55600653  -0.50991399
  -0.48546573  -0.47232159  -0.45524299  -0.45202287  -0.44751832
  -0.43184862  -0.42329495  -0.41276351  -0.40200392  -0.38510382
  -0.37558523  -0.37094809  -0.36721977  -0.36085878  -0.35733532
  -0.34002078  -0.32598231  -0.32397825  -0.30820134  -0.29936875
  -0.29353668  -0.29035945  -0.26691043  -0.26252356  -0.25039656
  -0.24016762  -0.22078196  -0.20922074  -0.20478278  -0.18615079
  -0.16494432  -0.14270038  -0.08871632  -0.01689717   0.02943001
   0.04878961   0.08282553   0.09100916   0.11618618   0.13979971
   0.17589919   0.19841476   0.21525968   0.24740769   0.25310986
   0.27974265   0.29164512   0.3036071    0.30662985   0.31523141
   0.34372202   0.35026197   0.35785393   0.37503065   0.37998158
   0.39218279   0.40296813   0.42312282   0.43524283   0.43993546
   0.45949928   0.4767873    0.47969779   0.49734171   0.51525415
   0.54283551   0.55977812   0.56193683   0.59165606   0.61198682
   0.62861221   0.64429109   0.65027753   0.69150589   0.69357383
   0.74096165   0.74993998   0.80131467   0.8161459    0.83436572
   0.88673235   0.91335431   0.95749761   1.13983587]
nelec by numeric integration = 145.99999571997662
    CPU time for vxc     38.76 sec, wall time     16.07 sec
E1 = -4089.371620464552  Ecoul = 1889.9786433154186  Exc = -124.49043223736166
cycle= 9 E= -835.615792729786  delta_E= -5.79e-07  |g|= 0.000607  |ddm|= 0.00273
    CPU time for cycle= 9     39.12 sec, wall time     16.13 sec
  HOMO = -0.0887555759625603  LUMO = -0.0169153675643839
  mo_energy =
[-10.03626815 -10.03108395 -10.02639004 -10.02427071 -10.02193671
 -10.0174815  -10.01681956 -10.01639996 -10.01548713 -10.01069211
 -10.0098182  -10.00824382 -10.00749217 -10.00673823 -10.00581442
 -10.00543678 -10.00529527 -10.00501808  -9.99703294  -9.99564249
  -9.99465615  -9.98385     -0.87454393  -0.85175262  -0.79879688
  -0.79249045  -0.75326921  -0.7457716   -0.71151502  -0.70134334
  -0.68334121  -0.66969083  -0.62339781  -0.60668266  -0.58243224
  -0.57908615  -0.57312572  -0.55920969  -0.55599948  -0.50992958
  -0.48547091  -0.47232945  -0.45525089  -0.45204051  -0.44753727
  -0.43184054  -0.42329453  -0.41277437  -0.40201001  -0.38510439
  -0.37559209  -0.37094812  -0.36723404  -0.36086449  -0.35733772
  -0.34003114  -0.32600588  -0.32399169  -0.30821702  -0.29937906
  -0.29354377  -0.29036455  -0.26692942  -0.26254072  -0.25041576
  -0.24016572  -0.22078399  -0.20923414  -0.2047917   -0.18615894
  -0.16495097  -0.14272261  -0.08875558  -0.01691537   0.02941973
   0.04877496   0.08281957   0.09099299   0.11619877   0.1397826
   0.17588736   0.19839119   0.21524094   0.24740725   0.25310136
   0.279718     0.29163691   0.30359735   0.30661193   0.31521162
   0.3437439    0.35026322   0.35784487   0.37501421   0.37997898
   0.39217173   0.40294749   0.42312687   0.4352566    0.43993418
   0.45951268   0.47677296   0.47967351   0.49731233   0.5152329
   0.54281436   0.55977061   0.56195656   0.59165102   0.6119668
   0.62859978   0.64427882   0.6502764    0.69147847   0.6935529
   0.74097659   0.74991832   0.80127809   0.81610433   0.83433264
   0.88674164   0.91333922   0.95749948   1.13985108]
nelec by numeric integration = 145.99999571997196
    CPU time for vxc     38.44 sec, wall time     15.79 sec
E1 = -4089.3722353944277  Ecoul = 1889.9792918938376  Exc = -124.49046601304356
cycle= 10 E= -835.615792856925  delta_E= -1.27e-07  |g|= 0.000179  |ddm|= 0.00104
    CPU time for cycle= 10     39.02 sec, wall time     15.88 sec
  HOMO = -0.088754957695472  LUMO = -0.0169151166204681
  mo_energy =
[-10.03625676 -10.03106397 -10.02640565 -10.02422943 -10.02194735
 -10.01748303 -10.01682408 -10.01638998 -10.01548206 -10.01071065
 -10.00985864 -10.00821716 -10.00750162 -10.00679695 -10.00580727
 -10.00547173 -10.00528901 -10.00504581  -9.99707659  -9.99563743
  -9.99464767  -9.98384199  -0.8745298   -0.85177063  -0.79880752
  -0.79249499  -0.75327552  -0.7457645   -0.71151673  -0.7013553
  -0.68333902  -0.6696992   -0.62339943  -0.60668503  -0.58244297
  -0.57908984  -0.57312794  -0.55920132  -0.55599715  -0.50993575
  -0.48547259  -0.47233717  -0.45525089  -0.45203994  -0.44753968
  -0.43183483  -0.42329571  -0.41278049  -0.40202085  -0.38509594
  -0.37559857  -0.37094598  -0.36723959  -0.36087667  -0.35733736
  -0.34003659  -0.32600169  -0.32400108  -0.30822273  -0.29939095
  -0.29355082  -0.29036797  -0.26692494  -0.26254088  -0.25042545
  -0.24016103  -0.2207875   -0.20923493  -0.20479195  -0.18617246
  -0.16495068  -0.14273134  -0.08875496  -0.01691512   0.02941445
   0.04877154   0.08281326   0.09099317   0.11620117   0.13977237
   0.17589004   0.19838569   0.21523603   0.24740648   0.25309469
   0.27972396   0.29164048   0.30358713   0.30660436   0.31520497
   0.34374436   0.35027144   0.35783706   0.37501169   0.3799645
   0.39217102   0.40295244   0.42311433   0.43525468   0.43993608
   0.45951578   0.47676319   0.47967287   0.49730347   0.51522602
   0.54280902   0.55976966   0.56195568   0.59164901   0.61197564
   0.62859761   0.64426764   0.65027207   0.69147412   0.69355554
   0.7409806    0.74991281   0.80126498   0.81609091   0.83433734
   0.88671661   0.91334772   0.95748183   1.13986438]
nelec by numeric integration = 145.99999571996273
    CPU time for vxc     38.60 sec, wall time     15.80 sec
E1 = -4089.3725140891574  Ecoul = 1889.9795799031301  Exc = -124.49047533722623
cycle= 11 E= -835.615792866544  delta_E= -9.62e-09  |g|= 7.96e-05  |ddm|= 0.000353
    CPU time for cycle= 11     39.20 sec, wall time     15.89 sec
  HOMO = -0.0887531236230269  LUMO = -0.016911067004088
  mo_energy =
[-10.03626516 -10.03107059 -10.02639799 -10.02423458 -10.02193982
 -10.01748624 -10.01681177 -10.01639382 -10.01547665 -10.01070102
 -10.00984994 -10.0082274  -10.00749697 -10.00677821 -10.00581593
 -10.0054503  -10.00527945 -10.00503908  -9.99705591  -9.9956399
  -9.99464394  -9.98383463  -0.87453459  -0.8517625   -0.79880209
  -0.79249163  -0.7532704   -0.74576435  -0.71151331  -0.70134979
  -0.68333864  -0.6696946   -0.62339587  -0.6066817   -0.58243798
  -0.57908669  -0.57312457  -0.55920175  -0.55599693  -0.50993269
  -0.48547074  -0.47233343  -0.45524977  -0.4520384   -0.44753676
  -0.4318362   -0.42329417  -0.41277757  -0.40201545  -0.38509834
  -0.37559465  -0.3709449   -0.36723702  -0.36087127  -0.35733705
  -0.34003528  -0.32599985  -0.3239972   -0.30821842  -0.29938597
  -0.29354682  -0.29036582  -0.26692515  -0.26253793  -0.25042014
  -0.2401614   -0.22078577  -0.2092322   -0.20478938  -0.18616604
  -0.16494981  -0.14272708  -0.08875312  -0.01691107   0.02941833
   0.04877482   0.0828169    0.09099615   0.1162009    0.13977761
   0.17588849   0.19838933   0.21524017   0.24740696   0.25309786
   0.27972549   0.29164065   0.30359078   0.30660788   0.31521049
   0.34374417   0.35026862   0.35784097   0.37501331   0.37997122
   0.39217415   0.40295396   0.42311968   0.43525508   0.43993633
   0.45951477   0.47676773   0.47967608   0.49730707   0.51522922
   0.54281366   0.55977028   0.5619563    0.59165181   0.61197596
   0.62860217   0.64427432   0.65027559   0.69147976   0.69355834
   0.74098056   0.74991518   0.80127015   0.81609918   0.83433954
   0.88672698   0.91334672   0.95748991   1.1398581 ]
nelec by numeric integration = 145.9999957199701
    CPU time for vxc     38.17 sec, wall time     15.74 sec
E1 = -4089.372241942787  Ecoul = 1889.9793000931438  Exc = -124.49046767591136
cycle= 12 E= -835.615792868845  delta_E= -2.3e-09  |g|= 3.45e-05  |ddm|= 0.000167
    CPU time for cycle= 12     38.50 sec, wall time     15.79 sec
  HOMO = -0.0887518704471481  LUMO = -0.0169097012461632
  mo_energy =
[-10.03625912 -10.03106627 -10.02639773 -10.0242371  -10.02194008
 -10.01748488 -10.01681224 -10.01639126 -10.01548196 -10.01070355
 -10.00984384 -10.00822667 -10.00749426 -10.0067756  -10.00581026
 -10.00545167 -10.00528169 -10.00503301  -9.99705866  -9.99562969
  -9.99464149  -9.98383572  -0.87453192  -0.85176156  -0.7988006
  -0.79249132  -0.7532693   -0.74576397  -0.71151276  -0.70134868
  -0.68333745  -0.6696935   -0.62339524  -0.6066805   -0.58243676
  -0.57908612  -0.57312345  -0.55920123  -0.55599606  -0.50993177
  -0.48546997  -0.47233295  -0.45524862  -0.45203763  -0.4475369
  -0.43183569  -0.42329253  -0.41277684  -0.4020137   -0.38509677
  -0.37559398  -0.37094467  -0.36723574  -0.36087033  -0.35733618
  -0.34003379  -0.32599974  -0.32399589  -0.308218    -0.29938522
  -0.29354678  -0.29036538  -0.2669243   -0.26253741  -0.25041898
  -0.24016058  -0.22078467  -0.20923131  -0.20478873  -0.18616467
  -0.16494898  -0.1427259   -0.08875187  -0.0169097    0.0294196
   0.04877568   0.08281797   0.09099707   0.11620184   0.13977886
   0.17588936   0.19839004   0.21524059   0.24740594   0.25309765
   0.27972578   0.29164113   0.30359195   0.30660908   0.31521115
   0.34374568   0.35026996   0.35784262   0.37501409   0.37997252
   0.39217302   0.40295486   0.42312018   0.43525645   0.43993771
   0.45951645   0.47676967   0.47967543   0.4973087    0.51523036
   0.54281615   0.55977201   0.56195743   0.59165188   0.61197635
   0.62860248   0.64427524   0.65027603   0.69148047   0.69355769
   0.74098136   0.74991706   0.80127217   0.81610021   0.83433974
   0.88672777   0.91334813   0.95749014   1.13986193]
nelec by numeric integration = 145.99999571997006
    CPU time for vxc     38.59 sec, wall time     15.77 sec
E1 = -4089.372139159621  Ecoul = 1889.9791948333516  Exc = -124.49046519953045
cycle= 13 E= -835.615792869091  delta_E= -2.46e-10  |g|= 2.26e-05  |ddm|= 8.14e-05
    CPU time for cycle= 13     38.98 sec, wall time     15.83 sec
  HOMO = -0.0887528404657246  LUMO = -0.0169103494960193
  mo_energy =
[-10.03626211 -10.03107096 -10.02640052 -10.02423764 -10.02193916
 -10.01748465 -10.01681639 -10.01639221 -10.01547918 -10.010704
 -10.00984485 -10.00822524 -10.00749627 -10.00677627 -10.00581014
 -10.0054542  -10.00528322 -10.00503318  -9.99705706  -9.99563241
  -9.99464925  -9.98383126  -0.87453401  -0.85176305  -0.79880177
  -0.79249139  -0.753271    -0.74576433  -0.71151294  -0.70134914
  -0.68333867  -0.66969413  -0.62339553  -0.60668155  -0.58243763
  -0.57908645  -0.57312468  -0.55920165  -0.55599643  -0.50993262
  -0.48547067  -0.47233344  -0.45524919  -0.4520381   -0.44753716
  -0.43183582  -0.42329364  -0.41277751  -0.40201448  -0.3850979
  -0.37559461  -0.37094485  -0.36723695  -0.36087161  -0.35733664
  -0.34003454  -0.32599988  -0.32399706  -0.30821844  -0.2993859
  -0.29354691  -0.29036567  -0.26692523  -0.26253771  -0.25042057
  -0.24016096  -0.22078516  -0.20923188  -0.20478909  -0.18616538
  -0.16494954  -0.14272643  -0.08875284  -0.01691035   0.02941921
   0.04877504   0.08281738   0.09099642   0.11620144   0.13977754
   0.17588876   0.1983893    0.21523998   0.24740651   0.25309765
   0.27972549   0.29164051   0.30359123   0.30660836   0.31521005
   0.34374514   0.350269     0.35784149   0.37501265   0.37997204
   0.39217364   0.40295438   0.42311991   0.43525591   0.43993674
   0.45951549   0.47676881   0.4796756    0.49730788   0.51522933
   0.54281395   0.55977116   0.56195719   0.59165189   0.6119759
   0.62860239   0.6442752    0.65027624   0.6914781    0.6935579
   0.74098126   0.74991623   0.80127114   0.81609869   0.83433884
   0.88672628   0.9133466    0.95748872   1.13985901]
nelec by numeric integration = 145.99999571997486
    CPU time for vxc     37.60 sec, wall time     15.64 sec
E1 = -4089.3722755835274  Ecoul = 1889.9793337225185  Exc = -124.49046766462469
cycle= 14 E= -835.615792868924  delta_E= 1.66e-10  |g|= 3.08e-05  |ddm|= 8.42e-05
    CPU time for cycle= 14     38.24 sec, wall time     15.73 sec
  HOMO = -0.0887528783288293  LUMO = -0.0169105268320608
  mo_energy =
[-10.03626057 -10.03106879 -10.0263996  -10.02423687 -10.02194012
 -10.01748563 -10.01681443 -10.01639251 -10.01547986 -10.01070312
 -10.00984675 -10.00822669 -10.00749604 -10.00677676 -10.00581091
 -10.00545311 -10.00528229 -10.00503438  -9.99705758  -9.99563352
  -9.99464471  -9.9838354   -0.87453309  -0.85176271  -0.79880165
  -0.79249173  -0.75327045  -0.7457645   -0.71151333  -0.70134936
  -0.68333826  -0.66969418  -0.62339579  -0.60668136  -0.58243759
  -0.57908659  -0.57312439  -0.55920162  -0.55599665  -0.50993242
  -0.48547063  -0.47233342  -0.45524925  -0.4520381   -0.44753708
  -0.43183598  -0.42329354  -0.41277742  -0.4020146   -0.38509749
  -0.37559459  -0.37094507  -0.36723652  -0.36087121  -0.35733664
  -0.34003437  -0.32600003  -0.32399671  -0.30821855  -0.29938583
  -0.29354707  -0.29036576  -0.26692481  -0.26253792  -0.25042009
  -0.24016108  -0.22078521  -0.20923205  -0.20478934  -0.18616546
  -0.16494952  -0.14272662  -0.08875288  -0.01691053   0.029419
   0.04877511   0.0828173    0.09099633   0.11620122   0.13977786
   0.17588919   0.19838943   0.21523999   0.24740638   0.25309754
   0.27972531   0.29164071   0.30359126   0.30660836   0.31521025
   0.34374477   0.35026941   0.35784173   0.37501355   0.3799719
   0.39217321   0.40295425   0.42311982   0.43525578   0.4399369
   0.45951558   0.4767687    0.47967544   0.49730791   0.51522959
   0.54281457   0.55977112   0.56195666   0.59165155   0.61197586
   0.62860191   0.64427477   0.65027555   0.69147921   0.69355761
   0.74098071   0.74991615   0.80127108   0.81609902   0.83433921
   0.88672658   0.91334717   0.95748921   1.13986048]
nelec by numeric integration = 145.9999957199738
    CPU time for vxc     38.66 sec, wall time     15.83 sec
E1 = -4089.3722344731227  Ecoul = 1889.9792923408527  Exc = -124.49046739372932
cycle= 15 E= -835.615792869291  delta_E= -3.66e-10  |g|= 3.55e-06  |ddm|= 5.42e-05
    CPU time for cycle= 15     39.12 sec, wall time     15.90 sec
  HOMO = -0.0887528786786528  LUMO = -0.0169104787928733
  mo_energy =
[-10.03626141 -10.03106931 -10.02639986 -10.02423656 -10.02194063
 -10.01748571 -10.01681394 -10.01639252 -10.01548066 -10.01070381
 -10.00984644 -10.0082266  -10.00749626 -10.00677708 -10.00581173
 -10.00545278 -10.00528248 -10.00503475  -9.99705796  -9.99563324
  -9.99464473  -9.983835    -0.87453337  -0.85176293  -0.79880178
  -0.79249195  -0.7532705   -0.74576455  -0.71151336  -0.70134951
  -0.68333841  -0.66969432  -0.62339582  -0.60668141  -0.58243772
  -0.57908672  -0.57312442  -0.55920168  -0.55599668  -0.50993257
  -0.48547074  -0.47233356  -0.45524931  -0.45203824  -0.44753723
  -0.43183602  -0.42329356  -0.41277756  -0.40201467  -0.38509764
  -0.37559472  -0.3709452   -0.36723666  -0.36087137  -0.35733678
  -0.34003449  -0.32599997  -0.32399677  -0.30821865  -0.29938598
  -0.29354722  -0.29036579  -0.26692491  -0.26253789  -0.2504202
  -0.24016113  -0.22078531  -0.20923207  -0.20478939  -0.18616559
  -0.16494969  -0.14272676  -0.08875288  -0.01691048   0.02941887
   0.04877496   0.08281717   0.09099634   0.11620115   0.13977774
   0.17588908   0.19838929   0.21523986   0.24740628   0.25309741
   0.27972535   0.29164061   0.3035911    0.30660829   0.3152102
   0.34374472   0.35026929   0.3578417    0.37501362   0.37997173
   0.39217296   0.40295424   0.42311966   0.43525566   0.43993687
   0.45951555   0.47676862   0.47967523   0.49730778   0.51522952
   0.54281459   0.55977101   0.56195662   0.59165142   0.61197585
   0.62860197   0.64427465   0.65027554   0.69147921   0.6935575
   0.7409807    0.74991592   0.8012709    0.81609899   0.83433897
   0.88672633   0.91334695   0.95748893   1.13986003]
nelec by numeric integration = 145.99999571997412
    CPU time for vxc     37.47 sec, wall time     15.52 sec
E1 = -4089.372245629207  Ecoul = 1889.979304002517  Exc = -124.49046789930955
cycle= 16 E= -835.615792869291  delta_E= -4.55e-13  |g|= 2.03e-06  |ddm|= 7.85e-06
    CPU time for cycle= 16     37.72 sec, wall time     15.56 sec
  HOMO = -0.0887529133177481  LUMO = -0.0169104981710748
  mo_energy =
[-10.03626077 -10.03106854 -10.02639924 -10.02423719 -10.02193978
 -10.01748546 -10.01681447 -10.01639257 -10.01547931 -10.01070336
 -10.00984672 -10.00822688 -10.00749593 -10.00677664 -10.00581111
 -10.00545317 -10.00528218 -10.0050346   -9.9970581   -9.99563337
  -9.99464511  -9.98383505  -0.87453315  -0.85176271  -0.79880169
  -0.7924916   -0.75327048  -0.7457645   -0.71151329  -0.70134939
  -0.68333827  -0.66969424  -0.62339577  -0.60668136  -0.58243762
  -0.57908656  -0.5731244   -0.55920165  -0.55599662  -0.50993246
  -0.4854706   -0.47233345  -0.45524926  -0.45203812  -0.44753707
  -0.43183597  -0.42329354  -0.41277747  -0.40201463  -0.38509752
  -0.3755946   -0.37094501  -0.36723658  -0.36087121  -0.35733661
  -0.34003438  -0.32599999  -0.32399676  -0.30821849  -0.29938588
  -0.293547    -0.2903657   -0.26692486  -0.26253793  -0.25042012
  -0.24016108  -0.22078522  -0.20923206  -0.20478932  -0.18616552
  -0.1649495   -0.14272669  -0.08875291  -0.0169105    0.02941899
   0.04877512   0.08281724   0.09099632   0.11620124   0.13977785
   0.17588914   0.19838945   0.21524005   0.24740651   0.25309757
   0.27972529   0.29164076   0.30359123   0.30660834   0.31521024
   0.34374482   0.35026938   0.3578417    0.37501345   0.37997179
   0.39217342   0.40295419   0.42311971   0.43525572   0.43993685
   0.45951554   0.47676868   0.47967557   0.49730781   0.51522951
   0.5428145    0.5597711    0.5619567    0.59165165   0.6119758
   0.62860193   0.64427467   0.65027565   0.69147913   0.69355772
   0.74098071   0.74991612   0.80127102   0.81609896   0.8343393
   0.88672663   0.91334722   0.95748924   1.13986044]
nelec by numeric integration = 145.999995719974
    CPU time for vxc     38.08 sec, wall time     15.96 sec
E1 = -4089.372237875461  Ecoul = 1889.9792957111424  Exc = -124.49046736168154
Extra cycle  E= -835.615792869291  delta_E=    0  |g|= 4.01e-06  |ddm|= 8.44e-06
    CPU time for scf_cycle    703.34 sec, wall time    286.89 sec
    CPU time for SCF    703.34 sec, wall time    286.90 sec
converged SCF energy = -835.615792869291
nelec by numeric integration = 145.999995719974
    CPU time for vxc     37.99 sec, wall time     15.73 sec
 ** Mulliken pop  **
pop of  0 C 1s            1.99049
pop of  0 C 2s            1.04074
pop of  0 C 2px           1.02668
pop of  0 C 2py           0.98718
pop of  0 C 2pz           1.00592
pop of  1 C 1s            1.99120
pop of  1 C 2s            1.14556
pop of  1 C 2px           0.98238
pop of  1 C 2py           0.93981
pop of  1 C 2pz           0.94451
pop of  2 C 1s            1.99111
pop of  2 C 2s            1.17381
pop of  2 C 2px           0.96128
pop of  2 C 2py           0.94203
pop of  2 C 2pz           0.97082
pop of  3 C 1s            1.99083
pop of  3 C 2s            1.11353
pop of  3 C 2px           1.01347
pop of  3 C 2py           0.96365
pop of  3 C 2pz           0.98156
pop of  4 C 1s            1.99135
pop of  4 C 2s            1.20985
pop of  4 C 2px           0.97694
pop of  4 C 2py           0.93610
pop of  4 C 2pz           0.96118
pop of  5 C 1s            1.99162
pop of  5 C 2s            1.25130
pop of  5 C 2px           0.94210
pop of  5 C 2py           0.91985
pop of  5 C 2pz           0.95013
pop of  6 C 1s            1.99082
pop of  6 C 2s            1.13392
pop of  6 C 2px           1.00181
pop of  6 C 2py           0.99136
pop of  6 C 2pz           0.96653
pop of  7 C 1s            1.99067
pop of  7 C 2s            1.11746
pop of  7 C 2px           1.01020
pop of  7 C 2py           0.99821
pop of  7 C 2pz           0.98353
pop of  8 C 1s            1.99102
pop of  8 C 2s            1.13521
pop of  8 C 2px           0.97883
pop of  8 C 2py           0.93834
pop of  8 C 2pz           0.96349
pop of  9 C 1s            1.99069
pop of  9 C 2s            1.13520
pop of  9 C 2px           0.99465
pop of  9 C 2py           0.94948
pop of  9 C 2pz           0.96716
pop of  10 C 1s           1.99196
pop of  10 C 2s           1.26598
pop of  10 C 2px          0.95249
pop of  10 C 2py          0.90246
pop of  10 C 2pz          0.97546
pop of  11 C 1s           1.99145
pop of  11 C 2s           1.22560
pop of  11 C 2px          0.98227
pop of  11 C 2py          0.89000
pop of  11 C 2pz          0.93704
pop of  12 C 1s           1.99108
pop of  12 C 2s           1.17584
pop of  12 C 2px          0.98603
pop of  12 C 2py          0.91465
pop of  12 C 2pz          0.91897
pop of  13 C 1s           1.99117
pop of  13 C 2s           1.04816
pop of  13 C 2px          1.01024
pop of  13 C 2py          1.00337
pop of  13 C 2pz          0.97543
pop of  14 C 1s           1.99116
pop of  14 C 2s           1.18319
pop of  14 C 2px          0.94747
pop of  14 C 2py          0.96936
pop of  14 C 2pz          0.98752
pop of  15 C 1s           1.99119
pop of  15 C 2s           1.04563
pop of  15 C 2px          1.02888
pop of  15 C 2py          1.03219
pop of  15 C 2pz          1.01884
pop of  16 C 1s           1.99103
pop of  16 C 2s           1.17715
pop of  16 C 2px          0.96989
pop of  16 C 2py          0.92699
pop of  16 C 2pz          0.92621
pop of  17 C 1s           1.99138
pop of  17 C 2s           1.14767
pop of  17 C 2px          0.98685
pop of  17 C 2py          0.92554
pop of  17 C 2pz          0.92584
pop of  18 C 1s           1.99068
pop of  18 C 2s           1.15333
pop of  18 C 2px          1.02241
pop of  18 C 2py          0.95411
pop of  18 C 2pz          0.99555
pop of  19 C 1s           1.99158
pop of  19 C 2s           1.14085
pop of  19 C 2px          0.98314
pop of  19 C 2py          0.95946
pop of  19 C 2pz          1.02724
pop of  20 C 1s           1.99137
pop of  20 C 2s           1.20728
pop of  20 C 2px          0.95356
pop of  20 C 2py          0.94764
pop of  20 C 2pz          0.91849
pop of  21 C 1s           1.99073
pop of  21 C 2s           1.13225
pop of  21 C 2px          1.01738
pop of  21 C 2py          1.00024
pop of  21 C 2pz          0.95480
pop of  22 H 1s           0.92399
pop of  23 H 1s           0.92252
pop of  24 H 1s           0.90483
pop of  25 H 1s           0.91865
pop of  26 H 1s           0.91388
pop of  27 H 1s           0.92756
pop of  28 H 1s           0.91178
pop of  29 H 1s           0.94493
pop of  30 H 1s           0.90180
pop of  31 H 1s           0.92710
pop of  32 H 1s           0.89650
pop of  33 H 1s           0.89187
pop of  34 H 1s           0.95756
pop of  35 H 1s           0.91573
 ** Mulliken atomic charges  **
charge of    0C =     -0.05101
charge of    1C =     -0.00346
charge of    2C =     -0.03904
charge of    3C =     -0.06305
charge of    4C =     -0.07543
charge of    5C =     -0.05500
charge of    6C =     -0.08443
charge of    7C =     -0.10008
charge of    8C =     -0.00690
charge of    9C =     -0.03718
charge of   10C =     -0.08836
charge of   11C =     -0.02636
charge of   12C =      0.01344
charge of   13C =     -0.02839
charge of   14C =     -0.07871
charge of   15C =     -0.11673
charge of   16C =      0.00873
charge of   17C =      0.02273
charge of   18C =     -0.11608
charge of   19C =     -0.10227
charge of   20C =     -0.01834
charge of   21C =     -0.09539
charge of   22H =      0.07601
charge of   23H =      0.07748
charge of   24H =      0.09517
charge of   25H =      0.08135
charge of   26H =      0.08612
charge of   27H =      0.07244
charge of   28H =      0.08822
charge of   29H =      0.05507
charge of   30H =      0.09820
charge of   31H =      0.07290
charge of   32H =      0.10350
charge of   33H =      0.10813
charge of   34H =      0.04244
charge of   35H =      0.08427
Dipole moment(X, Y, Z, Debye): -0.11653, -0.70255,  0.22639
nelec by numeric integration = 145.999995719974
    CPU time for vxc     38.08 sec, wall time     15.79 sec
E1 = -4089.372237875461  Ecoul = 1889.9792957111422  Exc = -124.49046736168155
nelec by numeric integration = 145.999995719974
    CPU time for vxc     37.93 sec, wall time     15.65 sec
E1 = -4089.372237875461  Ecoul = 1889.9792957111422  Exc = -124.49046736168155
