System: uname_result(system='Linux', node='cosmopc18', release='5.15.0-97-generic', version='#107-Ubuntu SMP Wed Feb 7 13:26:48 UTC 2024', machine='x86_64')  Threads 4
Python 3.11.8 (main, Feb 26 2024, 21:39:34) [GCC 11.2.0]
numpy 1.26.4  scipy 1.11.4
Date: Tue Apr  9 13:13:26 2024
PySCF version 2.3.0
PySCF path  /home/saade/miniconda3/envs/tutorial/lib/python3.11/site-packages/pyscf

[ENV] PYSCFAD_BACKEND torch
[CONFIG] conf_file None
[INPUT] verbose = 5
[INPUT] max_memory = 4000 
[INPUT] num. atoms = 36
[INPUT] num. electrons = 146
[INPUT] charge = 0
[INPUT] spin (= nelec alpha-beta = 2S) = 0
[INPUT] symmetry False subgroup None
[INPUT] Mole.unit = angstrom
[INPUT] Symbol           X                Y                Z      unit          X                Y                Z       unit  Magmom
[INPUT]  1 C      0.050044000000   3.573384000000   0.649797000000 AA    0.094569454178   6.752717097903   1.227938366564 Bohr   0.0
[INPUT]  2 C     -0.030167000000   3.550520000000  -0.688626000000 AA   -0.057007368000   6.709510399791  -1.301314542255 Bohr   0.0
[INPUT]  3 C     -0.070252000000   4.957443000000   1.327161000000 AA   -0.132757039703   9.368209548142   2.507970813204 Bohr   0.0
[INPUT]  4 C      0.040230000000   2.443484000000   1.324822000000 AA    0.076023681991   4.617515549757   2.503550743799 Bohr   0.0
[INPUT]  5 C     -0.060208000000   4.997758000000  -1.486363000000 AA   -0.113776630508   9.444393856854  -2.808818991687 Bohr   0.0
[INPUT]  6 C     -0.079040000000   2.491345000000  -1.468410000000 AA   -0.149363952886   4.707959731805  -2.774892738573 Bohr   0.0
[INPUT]  7 C     -0.113647000000   6.077494000000  -0.706881000000 AA   -0.214761704878  11.484799183687  -1.335811492659 Bohr   0.0
[INPUT]  8 C     -0.007437000000   6.172538000000   0.860646000000 AA   -0.014053893188  11.664406313471   1.626385230202 Bohr   0.0
[INPUT]  9 C      0.014348000000   1.223506000000   0.836413000000 AA    0.027113790435   2.312091251762   1.580591497026 Bohr   0.0
[INPUT] 10 C      0.235847000000   1.212073000000  -0.820785000000 AA    0.445686237300   2.290486012980  -1.551058857151 Bohr   0.0
[INPUT] 11 C      0.083920000000   0.074349000000   1.395845000000 AA    0.158585816373   0.140499247635   2.637764762344 Bohr   0.0
[INPUT] 12 C     -0.099233000000   0.059441000000  -1.356947000000 AA   -0.187523192519   0.112327210570  -2.564258195550 Bohr   0.0
[INPUT] 13 C     -0.080915000000  -1.318066000000   0.597400000000 AA   -0.152907189369  -2.490783754101   1.128922386815 Bohr   0.0
[INPUT] 14 C      0.015042000000  -1.145826000000  -0.642828000000 AA    0.028425260366  -2.165297326406  -1.214768865202 Bohr   0.0
[INPUT] 15 C     -0.065223000000  -2.574572000000   1.511632000000 AA   -0.123253607023  -4.865235967974   2.856570481129 Bohr   0.0
[INPUT] 16 C      0.051266000000  -2.187417000000  -1.326015000000 AA    0.096878699502  -4.133619050218  -2.505805187065 Bohr   0.0
[INPUT] 17 C     -0.161531000000  -3.551019000000   0.827965000000 AA   -0.305249350627  -6.710453373127   1.564627090726 Bohr   0.0
[INPUT] 18 C      0.021811000000  -3.609887000000  -0.813838000000 AA    0.041216816503  -6.821697770628  -1.537930929764 Bohr   0.0
[INPUT] 19 C     -0.021184000000  -4.939788000000   1.595980000000 AA   -0.040031958223  -9.334846433413   3.015965100283 Bohr   0.0
[INPUT] 20 C     -0.157810000000  -4.872219000000  -1.237936000000 AA   -0.298217679718  -9.207159528902  -2.339359999740 Bohr   0.0
[INPUT] 21 C      0.003932000000  -6.051672000000   0.676009000000 AA    0.007430403122 -11.436002675699   1.277471867741 Bohr   0.0
[INPUT] 22 C     -0.067652000000  -6.135552000000  -0.728216000000 AA   -0.127843751779 -11.594512903027  -1.376128799526 Bohr   0.0
[INPUT] 23 H      0.010133000000   5.177161000000   2.449229000000 AA    0.019148594820   9.783416392779   4.628372026342 Bohr   0.0
[INPUT] 24 H      0.125431000000   2.410906000000   2.457430000000 AA    0.237030237530   4.555952052071   4.643869670290 Bohr   0.0
[INPUT] 25 H     -0.019323000000   4.992892000000  -2.351737000000 AA   -0.036515177905   9.435198449532  -4.444138847006 Bohr   0.0
[INPUT] 26 H      0.024851000000   2.446251000000  -2.335535000000 AA    0.046961583922   4.622744421943  -4.413521504336 Bohr   0.0
[INPUT] 27 H      0.112907000000   7.237355000000  -1.161826000000 AA    0.213363307546  13.676618816252  -2.195532944399 Bohr   0.0
[INPUT] 28 H     -0.232840000000   6.887307000000   1.177027000000 AA   -0.440003830844  13.015123965800   2.224258671218 Bohr   0.0
[INPUT] 29 H     -0.161439000000  -0.098550000000   2.444531000000 AA   -0.305075495824  -0.186232509576   4.619494093009 Bohr   0.0
[INPUT] 30 H      0.028796000000  -0.076111000000  -2.453351000000 AA    0.054416553483  -0.143828945067  -4.636161477428 Bohr   0.0
[INPUT] 31 H     -0.051909000000  -2.414057000000   2.368394000000 AA   -0.098093793400  -4.561906579089   4.475616015063 Bohr   0.0
[INPUT] 32 H     -0.127776000000  -2.532277000000  -2.385983000000 AA   -0.241461645292  -4.785310001535  -4.508854407868 Bohr   0.0
[INPUT] 33 H     -0.090545000000  -5.192383000000   2.483415000000 AA   -0.171105251949  -9.812181803848   4.692974203637 Bohr   0.0
[INPUT] 34 H     -0.060853000000  -4.831923000000  -2.402597000000 AA   -0.114995503858  -9.131011124987  -4.540250317702 Bohr   0.0
[INPUT] 35 H     -0.019695000000  -7.083942000000   1.085165000000 AA   -0.037218156023 -13.386710262304   2.050664649964 Bohr   0.0
[INPUT] 36 H     -0.076930000000  -6.851508000000  -1.315415000000 AA   -0.145376630763 -12.947473660267  -2.485774090145 Bohr   0.0
[INPUT] ---------------- BASIS SET ---------------- 
[INPUT] l, kappa, [nprim/nctr], expnt,             c_1 c_2 ...
[INPUT] H
[INPUT] 0    0    [3    /1   ]  3.42525091        0.15432897
                                0.62391373        0.53532814
                                0.1688554         0.44463454
[INPUT] C
[INPUT] 0    0    [3    /1   ]  71.616837         0.15432897
                                13.045096         0.53532814
                                3.5305122         0.44463454
[INPUT] 0    0    [3    /1   ]  2.9412494         -0.09996723
                                0.6834831         0.39951283
                                0.2222899         0.70011547
[INPUT] 1    0    [3    /1   ]  2.9412494         0.15591627
                                0.6834831         0.60768372
                                0.2222899         0.39195739

nuclear repulsion = 1501.6529497528
number of shells = 80
number of NR pGTOs = 372
number of NR cGTOs = 124
basis = sto3g
ecp = {}
CPU time:     31002.01
atom C rad-grids = 99, ang-grids = [ 50  50  50  50  50  50  50  50  50  50  50  50  50  50  50  50  50  50
  50  50  50  50  50  50  50  50  50  50  50  50  50  86  86  86  86  86
  86  86  86  86  86  86  86 434 434 434 434 434 434 434 434 434 590 590
 590 590 590 590 590 590 590 590 590 590 590 590 590 590 590 590 590 590
 590 590 590 590 590 590 590 434 434 434 434 434 434 434 434 434 434 434
 434 434 434 434 434 434 434 434 434]
atom H rad-grids = 99, ang-grids = [ 50  50  50  50  50  50  50  50  50  50  50  50  50  50  50  50  50  50
  50  50  50  50  50  50  50  50  50  50  86  86  86  86  86  86  86 434
 434 434 434 434 434 434 434 590 590 590 590 590 590 590 590 590 590 590
 590 590 590 590 590 590 590 590 590 590 590 590 590 590 590 434 434 434
 434 434 434 434 434 434 434 434 434 434 434 434 434 434 434 434 434 434
 434 434 434 434 434 434 434 434 434]
tot_boxes 5440, boxes in each direction [ 8 30 15]
Padding 0 grids
tot grids = 1157832


******** <class 'pyscf.dft.rks.RKS'> ********
method = RKS
initial guess = minao
damping factor = 0
level_shift factor = 0
DIIS = <class 'pyscf.scf.diis.CDIIS'>
diis_start_cycle = 1
diis_space = 8
SCF conv_tol = 1e-10
SCF conv_tol_grad = None
SCF max_cycles = 50
direct_scf = True
direct_scf_tol = 1e-13
chkfile to save SCF result = /home/saade/mlelec/tutorials/tmpd4r1uh23
max_memory 4000 MB (current use 637 MB)
XC library pyscf.dft.libxc version 6.1.0
    S. Lehtola, C. Steigemann, M. J.T. Oliveira, and M. A.L. Marques.,  SoftwareX 7, 1–5 (2018)
XC functionals = b3lypg
    P. J. Stephens, F. J. Devlin, C. F. Chabalowski, and M. J. Frisch.,  J. Phys. Chem. 98, 11623 (1994)
radial grids: 
    Treutler-Ahlrichs [JCP 102, 346 (1995); DOI:10.1063/1.469408] (M4) radial grids
    
becke partition: Becke, JCP 88, 2547 (1988); DOI:10.1063/1.454033
pruning grids: <function nwchem_prune at 0x7f9db5616ca0>
grids dens level: 3
symmetrized grids: False
atomic radii adjust function: <function treutler_atomic_radii_adjust at 0x7f9db5617380>
User specified grid scheme (99, 590)
small_rho_cutoff = 1e-07
Set gradient conv threshold to 1e-05
Initial guess from minao.
nelec by numeric integration = 145.26465270101605
    CPU time for vxc     37.29 sec, wall time     15.63 sec
E1 = -4102.272406551925  Ecoul = 1885.1206524697027  Exc = -126.3379333570883
init E= -841.836737686514
cond(S) = 21.13018751957315
    CPU time for initialize scf     47.05 sec, wall time     17.97 sec
  HOMO = -0.223404063787932  LUMO = -0.151502304257708
  mo_energy =
[-1.01596777e+01 -1.01506049e+01 -1.01325128e+01 -1.01261393e+01
 -1.01215885e+01 -1.01207453e+01 -1.01141202e+01 -1.01136590e+01
 -1.01132390e+01 -1.01099729e+01 -1.01098650e+01 -1.01072906e+01
 -1.01065218e+01 -1.01057003e+01 -1.01048696e+01 -1.00982406e+01
 -1.00980428e+01 -1.00896302e+01 -1.00895886e+01 -1.00848587e+01
 -1.00798784e+01 -1.00711431e+01 -1.11538611e+00 -1.07700616e+00
 -1.02344699e+00 -9.92086678e-01 -9.78888182e-01 -9.61737600e-01
 -9.29866749e-01 -8.94766999e-01 -8.74440852e-01 -8.51242351e-01
 -8.29907405e-01 -7.83587193e-01 -7.42005971e-01 -7.12152223e-01
 -7.03994692e-01 -6.96575262e-01 -6.63757847e-01 -6.60802419e-01
 -6.33771439e-01 -5.98793670e-01 -5.87597382e-01 -5.72283542e-01
 -5.60492584e-01 -5.36612890e-01 -5.35795999e-01 -5.22802896e-01
 -5.02590721e-01 -4.92978098e-01 -4.91015189e-01 -4.83982884e-01
 -4.79166421e-01 -4.71912853e-01 -4.60875785e-01 -4.48278559e-01
 -4.33953142e-01 -4.12471239e-01 -4.05280598e-01 -3.87491030e-01
 -3.82879283e-01 -3.74027596e-01 -3.68005250e-01 -3.63380890e-01
 -3.52303877e-01 -3.31550059e-01 -3.22460055e-01 -3.12941745e-01
 -3.03739727e-01 -2.95849056e-01 -2.80709672e-01 -2.52950932e-01
 -2.23404064e-01 -1.51502304e-01 -1.13083292e-01 -7.09811872e-02
 -4.33763200e-02 -2.13481873e-02 -4.76125180e-03  1.14012621e-02
  3.64093966e-02  7.84633659e-02  9.66228203e-02  1.08208675e-01
  1.26541913e-01  1.44294075e-01  1.56168280e-01  1.65683260e-01
  1.72355432e-01  1.80795081e-01  1.95421513e-01  2.13583537e-01
  2.56652500e-01  2.64668551e-01  2.76578337e-01  2.89283211e-01
  2.92164046e-01  2.97049410e-01  3.20326049e-01  3.32461147e-01
  3.47997363e-01  3.57610542e-01  3.84914923e-01  4.32230283e-01
  4.64768312e-01  4.93913464e-01  4.97151169e-01  5.29469788e-01
  5.32216062e-01  5.42372864e-01  5.79455055e-01  5.92259332e-01
  5.99708282e-01  6.09016878e-01  6.39124261e-01  6.66130548e-01
  6.79953541e-01  6.88963008e-01  7.16238120e-01  7.40233858e-01
  7.53657059e-01  7.87798186e-01  8.13509516e-01  8.54884022e-01]
nelec by numeric integration = 146.0000038317627
    CPU time for vxc     38.37 sec, wall time     15.84 sec
E1 = -4115.915721423008  Ecoul = 1903.7007278345927  Exc = -124.94586543185868
cycle= 1 E= -835.507909267477  delta_E= 6.33  |g|= 0.275  |ddm|= 9.31
    CPU time for cycle= 1     38.71 sec, wall time     15.89 sec
  HOMO = -0.108201609974919  LUMO = -0.00443718839863261
  mo_energy =
[-1.00630818e+01 -1.00454623e+01 -1.00401461e+01 -1.00369332e+01
 -1.00263045e+01 -1.00149254e+01 -1.00140921e+01 -1.00115457e+01
 -1.00052388e+01 -1.00020408e+01 -1.00017048e+01 -9.99714738e+00
 -9.99611708e+00 -9.99470574e+00 -9.99053247e+00 -9.98084305e+00
 -9.96809060e+00 -9.96710165e+00 -9.96590010e+00 -9.95299112e+00
 -9.93971781e+00 -9.93432424e+00 -8.51412198e-01 -8.38415245e-01
 -7.99648183e-01 -7.80322707e-01 -7.59024619e-01 -7.47524281e-01
 -7.33602083e-01 -7.06076402e-01 -6.97775783e-01 -6.75728891e-01
 -6.53357081e-01 -6.34812161e-01 -5.98743881e-01 -5.83318003e-01
 -5.66013001e-01 -5.59242893e-01 -5.41386221e-01 -5.27107435e-01
 -5.21119616e-01 -4.82313298e-01 -4.65530872e-01 -4.58975256e-01
 -4.50570797e-01 -4.44819789e-01 -4.25378578e-01 -4.08715771e-01
 -4.05870350e-01 -3.90356722e-01 -3.88214542e-01 -3.82576764e-01
 -3.68655412e-01 -3.64933099e-01 -3.56314764e-01 -3.42403083e-01
 -3.39526725e-01 -3.16242457e-01 -3.04556011e-01 -3.01549765e-01
 -2.78623252e-01 -2.72325816e-01 -2.65069320e-01 -2.55187237e-01
 -2.42315420e-01 -2.35131883e-01 -2.22186126e-01 -2.20285435e-01
 -2.10676407e-01 -1.89888584e-01 -1.80954161e-01 -1.41589494e-01
 -1.08201610e-01 -4.43718840e-03  3.33759830e-02  7.78180041e-02
  9.91112057e-02  1.20608835e-01  1.54829657e-01  1.70574435e-01
  1.91181041e-01  2.24470945e-01  2.48894210e-01  2.50139699e-01
  2.68437700e-01  2.93514253e-01  3.07307992e-01  3.15464906e-01
  3.20749149e-01  3.28895567e-01  3.36415211e-01  3.49414506e-01
  3.79473130e-01  3.86875406e-01  4.15453114e-01  4.24562366e-01
  4.33345933e-01  4.45760896e-01  4.62808749e-01  4.69298032e-01
  4.91587657e-01  5.05147484e-01  5.48933390e-01  5.85893152e-01
  6.00223435e-01  6.34807787e-01  6.53874118e-01  6.91811284e-01
  6.97866701e-01  7.03650958e-01  7.13828146e-01  7.37918798e-01
  7.54212840e-01  7.58086012e-01  7.84854797e-01  8.07584114e-01
  8.22637669e-01  8.34741028e-01  8.71232704e-01  8.91928305e-01
  9.16225602e-01  9.44528998e-01  9.59012850e-01  1.02586053e+00]
nelec by numeric integration = 146.00000384561878
    CPU time for vxc     37.84 sec, wall time     15.72 sec
E1 = -4112.544008413096  Ecoul = 1900.213094144787  Exc = -124.82887640066394
cycle= 2 E= -835.506840916176  delta_E= 0.00107  |g|= 0.302  |ddm|= 0.86
    CPU time for cycle= 2     38.35 sec, wall time     15.80 sec
  HOMO = -0.123838912315845  LUMO = -0.0164261767130874
  mo_energy =
[-10.04705639 -10.03119594 -10.02673898 -10.02624396 -10.02234012
 -10.02169604 -10.0213486  -10.01942383 -10.01926957 -10.0192236
 -10.01466032 -10.01187291 -10.00876252 -10.00848681 -10.00384347
 -10.00303063 -10.00221942 -10.00085817  -9.99954841  -9.99893977
  -9.99414959  -9.98625967  -0.87303223  -0.84205408  -0.80462365
  -0.78309236  -0.77584996  -0.76438907  -0.74463742  -0.71603579
  -0.7037588   -0.68656274  -0.67236069  -0.63864773  -0.60737872
  -0.58616646  -0.57536321  -0.57246068  -0.54792145  -0.54220908
  -0.5265687   -0.49119038  -0.48258145  -0.46951334  -0.45695289
  -0.44304325  -0.43671515  -0.42232756  -0.40736378  -0.4005364
  -0.39525173  -0.39041647  -0.38192532  -0.37867949  -0.36210631
  -0.34960584  -0.34498439  -0.31968157  -0.31024771  -0.30206952
  -0.28902071  -0.28016556  -0.27514962  -0.26977916  -0.25561308
  -0.2455438   -0.23234817  -0.22727952  -0.21702515  -0.20070977
  -0.18719011  -0.15428502  -0.12383891  -0.01642618   0.02182418
   0.06587314   0.09529441   0.11632022   0.13831712   0.15535609
   0.17917753   0.21946757   0.23800205   0.24761432   0.26232157
   0.28715004   0.29913633   0.30756083   0.31631529   0.32466535
   0.33735262   0.33840837   0.38908561   0.39196263   0.40921537
   0.4155458    0.4303339    0.43659027   0.45699822   0.47437753
   0.47939726   0.49369017   0.52394096   0.57955395   0.60614734
   0.63291049   0.63629641   0.67592345   0.67981324   0.68804467
   0.69618799   0.73081192   0.74292357   0.74570235   0.77632115
   0.79849887   0.81395682   0.82283352   0.8560292    0.87259965
   0.89490932   0.93129141   0.94315948   0.99904021]
nelec by numeric integration = 146.00000385912477
    CPU time for vxc     38.02 sec, wall time     15.69 sec
E1 = -4113.340120779547  Ecoul = 1901.006397309746  Exc = -124.8519011670049
cycle= 3 E= -835.532674884008  delta_E= -0.0258  |g|= 0.122  |ddm|= 0.564
    CPU time for cycle= 3     38.38 sec, wall time     15.75 sec
  HOMO = -0.127514305818905  LUMO = -0.021114027649198
  mo_energy =
[-10.04601188 -10.04418314 -10.03621632 -10.03580385 -10.03182745
 -10.02982412 -10.02624539 -10.02560712 -10.02426787 -10.02100698
 -10.02026977 -10.01877182 -10.01810056 -10.01640076 -10.01589645
 -10.01456685 -10.01287202 -10.01075312 -10.00980812 -10.00934252
 -10.00410682  -9.99731541  -0.87224781  -0.85066096  -0.8105781
  -0.79144742  -0.78162325  -0.76888386  -0.74925164  -0.71958154
  -0.70965311  -0.68875502  -0.6742152   -0.64543348  -0.6101012
  -0.5914929   -0.57853449  -0.57547446  -0.55121092  -0.54477278
  -0.53170426  -0.49538044  -0.48374796  -0.47361052  -0.46150663
  -0.44747996  -0.44126676  -0.4257678   -0.41320499  -0.40124267
  -0.39897836  -0.39650676  -0.38490051  -0.38236436  -0.36930227
  -0.3554719   -0.35057549  -0.32557898  -0.31571212  -0.30695314
  -0.29336809  -0.28750209  -0.28062789  -0.27528633  -0.26029119
  -0.24989083  -0.23781569  -0.23323029  -0.22208323  -0.20641694
  -0.19331263  -0.15838431  -0.12751431  -0.02111403   0.01749122
   0.06216395   0.08742567   0.10906243   0.13347866   0.15070498
   0.17166695   0.21301675   0.23399292   0.24143376   0.25826176
   0.28062105   0.29523459   0.30377321   0.31163406   0.31733593
   0.3313469    0.33520032   0.38118067   0.38741693   0.40599743
   0.41711874   0.42831948   0.43137773   0.45433778   0.46505375
   0.47571163   0.48791663   0.52505621   0.57232362   0.59766649
   0.62654049   0.63182473   0.67131231   0.67776734   0.68363079
   0.69504921   0.72796447   0.73532095   0.74077508   0.76891478
   0.79618618   0.80601608   0.81547661   0.85267771   0.86877499
   0.89582749   0.92733127   0.93726301   0.99551056]
nelec by numeric integration = 146.00000386001673
    CPU time for vxc     38.66 sec, wall time     15.92 sec
E1 = -4113.692416014349  Ecoul = 1901.3658262493996  Exc = -124.86353143021205
cycle= 4 E= -835.537171442365  delta_E= -0.0045  |g|= 0.0412  |ddm|= 0.215
    CPU time for cycle= 4     39.19 sec, wall time     16.01 sec
  HOMO = -0.128016551449937  LUMO = -0.0212066208717001
  mo_energy =
[-10.04885853 -10.04809012 -10.03580988 -10.03481812 -10.0302974
 -10.02894063 -10.02646495 -10.02623805 -10.02451478 -10.0236253
 -10.02274552 -10.01801945 -10.01699399 -10.016443   -10.01538502
 -10.01529189 -10.0145643  -10.00932758 -10.00759991 -10.00497069
 -10.00231972  -9.9974558   -0.87530278  -0.85039354  -0.80968162
  -0.79068759  -0.78031425  -0.76802337  -0.75010843  -0.71907577
  -0.70970934  -0.68911794  -0.67425741  -0.64500219  -0.61140306
  -0.59191381  -0.57847122  -0.57497985  -0.55051729  -0.54422371
  -0.53099334  -0.4951508   -0.48455059  -0.47376078  -0.46051929
  -0.44789728  -0.44108011  -0.42535139  -0.41332479  -0.4019495
  -0.39795395  -0.39711804  -0.38545486  -0.38332801  -0.36915597
  -0.35589805  -0.35142764  -0.32461706  -0.3154777   -0.30721392
  -0.29339388  -0.28659128  -0.28017545  -0.27493163  -0.26011019
  -0.25016909  -0.23764434  -0.23370668  -0.22262346  -0.20633777
  -0.19337748  -0.15878875  -0.12801655  -0.02120662   0.01678518
   0.06117258   0.08781199   0.10941785   0.13339235   0.15151215
   0.17280752   0.21322744   0.23443542   0.24148727   0.25738637
   0.28027149   0.29473298   0.30232368   0.31120729   0.31694808
   0.33125843   0.33417865   0.38168779   0.38837244   0.40626469
   0.41407034   0.42765894   0.43137598   0.45511769   0.4656814
   0.47682699   0.48953714   0.52360655   0.57267627   0.59777533
   0.62848945   0.6319749    0.6725749    0.67630447   0.68277749
   0.6966383    0.72723282   0.73467094   0.74288502   0.7708075
   0.79742672   0.80737498   0.81689764   0.85120474   0.86876558
   0.89173172   0.92659227   0.9369865    0.99658984]
nelec by numeric integration = 146.00000385189185
    CPU time for vxc     37.57 sec, wall time     15.78 sec
E1 = -4113.80471743221  Ecoul = 1901.476687112791  Exc = -124.8625433552216
cycle= 5 E= -835.537623921843  delta_E= -0.000452  |g|= 0.0205  |ddm|= 0.0892
    CPU time for cycle= 5     38.02 sec, wall time     15.85 sec
  HOMO = -0.127297675887191  LUMO = -0.0202680135011784
  mo_energy =
[-10.0455615  -10.04453737 -10.03384043 -10.03165993 -10.02857912
 -10.02586307 -10.02505232 -10.02451653 -10.02411153 -10.02317453
 -10.02193412 -10.01722524 -10.01653721 -10.01593658 -10.01532805
 -10.01243336 -10.01137512 -10.0086155  -10.00631555 -10.00571797
 -10.00197327 -10.00054191  -0.87287249  -0.84889755  -0.80927614
  -0.78965949  -0.779973    -0.76713053  -0.74859579  -0.71809089
  -0.70928588  -0.68837569  -0.67360032  -0.64421788  -0.60987664
  -0.59070103  -0.57771048  -0.57455153  -0.55044969  -0.54346022
  -0.53054016  -0.49439219  -0.48336977  -0.47262472  -0.46045623
  -0.4473894   -0.44001215  -0.42484982  -0.41219505  -0.40076636
  -0.39838938  -0.39589731  -0.38430951  -0.38196752  -0.36810065
  -0.35462143  -0.35022412  -0.32461758  -0.31488979  -0.3067631
  -0.29263501  -0.28562869  -0.27956151  -0.27430091  -0.25916206
  -0.24911407  -0.23673103  -0.23281901  -0.22184427  -0.20527013
  -0.19300961  -0.15793155  -0.12729768  -0.02026801   0.01779713
   0.0624604    0.08872962   0.11011495   0.13457773   0.15199951
   0.17366605   0.21385232   0.2351899    0.24259789   0.2585508
   0.28162724   0.29568152   0.30362833   0.31231173   0.31802232
   0.33210166   0.33521664   0.3824907    0.38812792   0.40701501
   0.41558087   0.42879874   0.43166678   0.45492391   0.46665553
   0.47681977   0.48988342   0.52516349   0.57402111   0.59840245
   0.62779495   0.63309749   0.67376934   0.67837319   0.68452476
   0.69531571   0.72867202   0.73621437   0.74279428   0.77060127
   0.79815715   0.80719874   0.81766984   0.85312095   0.86994408
   0.89458598   0.92820453   0.93824019   0.99719937]
nelec by numeric integration = 146.00000385625384
    CPU time for vxc     38.31 sec, wall time     15.84 sec
E1 = -4113.657839893426  Ecoul = 1901.327816473054  Exc = -124.86069364561438
cycle= 6 E= -835.537767313189  delta_E= -0.000143  |g|= 0.00734  |ddm|= 0.0421
    CPU time for cycle= 6     38.74 sec, wall time     15.91 sec
  HOMO = -0.127146408116765  LUMO = -0.0201552050360466
  mo_energy =
[-10.04545376 -10.04510627 -10.03383788 -10.03123397 -10.02892041
 -10.02650473 -10.02561555 -10.02430103 -10.02395143 -10.02292703
 -10.02118184 -10.01627179 -10.01589791 -10.01583574 -10.01578035
 -10.01244806 -10.01201249 -10.00860382 -10.0066079  -10.00565796
 -10.0017488   -9.99815807  -0.87302758  -0.84896492  -0.80903987
  -0.78962613  -0.77983756  -0.76714537  -0.74863445  -0.71808744
  -0.709027    -0.68818265  -0.67344199  -0.64414726  -0.60996602
  -0.59067144  -0.5776371   -0.57441927  -0.55017668  -0.5434782
  -0.53040988  -0.49435924  -0.48342006  -0.47263923  -0.46029659
  -0.44730038  -0.44013553  -0.4247401   -0.41217148  -0.4008253
  -0.39783782  -0.39596136  -0.38437375  -0.38210616  -0.368118
  -0.35462101  -0.35025397  -0.32442621  -0.31475806  -0.30667927
  -0.29254151  -0.28569384  -0.27946725  -0.27418703  -0.25913275
  -0.24917411  -0.23678845  -0.23268865  -0.22172067  -0.20523279
  -0.19271933  -0.15780581  -0.12714641  -0.02015521   0.01791194
   0.06251049   0.08886494   0.1102825    0.13461613   0.15217335
   0.17361673   0.21401359   0.23523699   0.24260592   0.25855692
   0.28161109   0.29584459   0.30370092   0.31247638   0.31819306
   0.33206243   0.33535088   0.38243378   0.38828791   0.4069754
   0.41542977   0.42875404   0.43181257   0.45517118   0.46665222
   0.47697158   0.48984364   0.52503605   0.57399013   0.59859254
   0.62830563   0.63304959   0.67359955   0.67819534   0.68444796
   0.69610394   0.72866694   0.73627282   0.74303798   0.77091481
   0.79808302   0.80755001   0.81760674   0.85306117   0.86994608
   0.89429742   0.92808241   0.93832737   0.99739786]
nelec by numeric integration = 146.00000385606378
    CPU time for vxc     37.86 sec, wall time     15.64 sec
E1 = -4113.6738231758745  Ecoul = 1901.343619397222  Exc = -124.86053225380198
cycle= 7 E= -835.537786279657  delta_E= -1.9e-05  |g|= 0.00135  |ddm|= 0.0127
    CPU time for cycle= 7     38.20 sec, wall time     15.70 sec
  HOMO = -0.127139447842137  LUMO = -0.0201260378345418
  mo_energy =
[-10.04558663 -10.04519877 -10.0340185  -10.0310967  -10.02878271
 -10.02638271 -10.02538657 -10.02442789 -10.02399756 -10.02305053
 -10.02109701 -10.01610768 -10.01589311 -10.01580577 -10.01558918
 -10.01257261 -10.01205778 -10.0083855  -10.00689602 -10.00542031
 -10.00177287  -9.99840255  -0.87300094  -0.84899276  -0.80902707
  -0.78962339  -0.77981912  -0.76716247  -0.74863125  -0.71812382
  -0.70897941  -0.68818825  -0.67346082  -0.64412388  -0.60993404
  -0.59071964  -0.57762908  -0.57443228  -0.55018317  -0.54350288
  -0.5303987   -0.49433529  -0.48340517  -0.47266918  -0.46028338
  -0.44721932  -0.44014224  -0.42473406  -0.41221915  -0.40084679
  -0.39784844  -0.39596347  -0.38434812  -0.38210798  -0.36812876
  -0.35463685  -0.3502377   -0.32437079  -0.31473273  -0.30661862
  -0.29255194  -0.28569325  -0.27945769  -0.27417928  -0.2591576
  -0.24916661  -0.23680958  -0.23267997  -0.22171013  -0.20527831
  -0.19268204  -0.15780003  -0.12713945  -0.02012604   0.01794516
   0.06251541   0.08884317   0.11028277   0.13458124   0.15216391
   0.17363333   0.21404712   0.23526586   0.24257145   0.25858877
   0.2816122    0.29583709   0.30373743   0.31245357   0.31815097
   0.33200346   0.33539259   0.38240908   0.38835879   0.40697588
   0.41551698   0.4287565    0.43189018   0.45519941   0.46664637
   0.47700138   0.48987372   0.52502102   0.57395195   0.59868246
   0.62836763   0.63303035   0.67362941   0.67817034   0.68437186
   0.69605342   0.72864376   0.7362203    0.74301998   0.77092725
   0.79807469   0.80761735   0.81763728   0.85303876   0.86989983
   0.89435771   0.92810196   0.9382896    0.99733378]
nelec by numeric integration = 146.00000385600464
    CPU time for vxc     37.97 sec, wall time     15.73 sec
E1 = -4113.673385713826  Ecoul = 1901.3431934933155  Exc = -124.86054444289066
cycle= 8 E= -835.537786910604  delta_E= -6.31e-07  |g|= 0.000413  |ddm|= 0.00251
    CPU time for cycle= 8     38.45 sec, wall time     15.80 sec
  HOMO = -0.127144900524281  LUMO = -0.0201228226718602
  mo_energy =
[-10.04553296 -10.04525628 -10.0339995  -10.03117039 -10.0288045
 -10.02636739 -10.02539612 -10.02439251 -10.02397708 -10.02301771
 -10.02115976 -10.01610476 -10.01591174 -10.01579872 -10.01561142
 -10.01255812 -10.01202047 -10.00847401 -10.00686601 -10.00543676
 -10.00185116  -9.99832709  -0.87302188  -0.84898915  -0.80902632
  -0.78962938  -0.77981915  -0.76716226  -0.74863098  -0.71813678
  -0.70898586  -0.68819704  -0.67345694  -0.64413265  -0.60994887
  -0.59071664  -0.57763115  -0.57443363  -0.55019019  -0.54350696
  -0.53041093  -0.49434249  -0.48341154  -0.47267285  -0.46027751
  -0.44723065  -0.440139    -0.42473656  -0.41222156  -0.40085219
  -0.39784015  -0.39596018  -0.38435397  -0.38211106  -0.36812521
  -0.35463774  -0.35023899  -0.32438084  -0.31473555  -0.30661831
  -0.29255122  -0.28569857  -0.27946037  -0.274178    -0.25915302
  -0.24917113  -0.23680776  -0.23268171  -0.22171     -0.2052874
  -0.19268837  -0.1578098   -0.1271449   -0.02012282   0.01793568
   0.06251561   0.08884095   0.11028165   0.13458612   0.15216982
   0.17362302   0.21403955   0.23526318   0.24257131   0.25858334
   0.28161118   0.29583825   0.3037268    0.31245525   0.31815821
   0.33201768   0.33538162   0.38241957   0.38835698   0.40697802
   0.41550984   0.42875653   0.43189087   0.45520068   0.4666499
   0.47699473   0.48986288   0.52502229   0.57395816   0.59866757
   0.62836568   0.63303057   0.67362524   0.67816063   0.68436644
   0.69605503   0.72864253   0.73622702   0.74302342   0.77092937
   0.79805316   0.80760101   0.81762856   0.8530275    0.86989222
   0.89433693   0.92808773   0.93828101   0.99733927]
nelec by numeric integration = 146.0000038561273
    CPU time for vxc     37.75 sec, wall time     15.76 sec
E1 = -4113.673952845209  Ecoul = 1901.343773672536  Exc = -124.86055754773169
cycle= 9 E= -835.537786967608  delta_E= -5.7e-08  |g|= 0.000149  |ddm|= 0.000769
    CPU time for cycle= 9     38.28 sec, wall time     15.83 sec
  HOMO = -0.127150034674805  LUMO = -0.0201234552549603
  mo_energy =
[-10.0455447  -10.04521996 -10.03398227 -10.03114385 -10.02881648
 -10.02638205 -10.02541825 -10.02438775 -10.02399624 -10.02301224
 -10.0211444  -10.01611759 -10.01591773 -10.0158126  -10.01562246
 -10.0125645  -10.01204214 -10.00844808 -10.00684713 -10.00545463
 -10.00182132  -9.99835366  -0.87301455  -0.84899085  -0.80902878
  -0.78963068  -0.77981965  -0.76716336  -0.74863398  -0.71812959
  -0.70898901  -0.68819468  -0.67346039  -0.64413423  -0.60994425
  -0.5907196   -0.57763273  -0.57443018  -0.55019288  -0.54350606
  -0.53041247  -0.49434444  -0.48340893  -0.47267054  -0.46027803
  -0.44723356  -0.44014096  -0.42473363  -0.41221956  -0.40084806
  -0.39784843  -0.39596343  -0.38435331  -0.38210792  -0.36812725
  -0.35463698  -0.35024005  -0.32438039  -0.31473639  -0.30662042
  -0.29255153  -0.28569721  -0.27945848  -0.27418012  -0.25915466
  -0.24916926  -0.23680673  -0.23268365  -0.22171003  -0.20528307
  -0.19269105  -0.15780834  -0.12715003  -0.02012346   0.01793722
   0.06251362   0.0888418    0.11028091   0.13458464   0.15216998
   0.1736251    0.21403926   0.23526324   0.24257596   0.25858652
   0.28161166   0.29583873   0.30372911   0.31245604   0.31815696
   0.33201991   0.33538425   0.38241782   0.38835245   0.40697719
   0.41550919   0.42875727   0.43188598   0.45519532   0.46664807
   0.47699803   0.48986611   0.52502098   0.57395749   0.59866443
   0.62835525   0.63302897   0.67362208   0.67816525   0.68437402
   0.69604628   0.72863969   0.73622364   0.7430236    0.7709261
   0.79805764   0.80759625   0.81762788   0.85303278   0.86989295
   0.89434101   0.92809062   0.93828065   0.99734669]
nelec by numeric integration = 146.00000385609326
    CPU time for vxc     38.07 sec, wall time     15.85 sec
E1 = -4113.673799889444  Ecoul = 1901.3436267047339  Exc = -124.8605635431171
cycle= 10 E= -835.53778697503  delta_E= -7.42e-09  |g|= 4.57e-05  |ddm|= 0.000275
    CPU time for cycle= 10     38.52 sec, wall time     15.93 sec
  HOMO = -0.127151389850104  LUMO = -0.0201239782198997
  mo_energy =
[-10.04554429 -10.04522039 -10.03398479 -10.03116072 -10.0288107
 -10.02638313 -10.02542086 -10.02439854 -10.02399032 -10.023023
 -10.02114487 -10.01611938 -10.01591707 -10.01580793 -10.01561943
 -10.0125596  -10.01204129 -10.0084621  -10.0068471  -10.00545067
 -10.00181814  -9.99835219  -0.87301849  -0.84899074  -0.80903047
  -0.7896304   -0.77982294  -0.76716342  -0.74863414  -0.71812947
  -0.70898923  -0.6881959   -0.67345992  -0.644135    -0.60994725
  -0.59071828  -0.5776333   -0.57443448  -0.55019115  -0.54350606
  -0.53041193  -0.49434415  -0.48341169  -0.47267165  -0.46028074
  -0.44723399  -0.44014044  -0.42473718  -0.41221856  -0.40084874
  -0.39784731  -0.39596377  -0.38435497  -0.38210954  -0.36812727
  -0.35463766  -0.35024106  -0.32438213  -0.31473775  -0.30662186
  -0.29255213  -0.28569779  -0.27946152  -0.27418154  -0.25915535
  -0.24917119  -0.2368069   -0.23268429  -0.22171221  -0.20528272
  -0.19269155  -0.15781019  -0.12715139  -0.02012398   0.01793456
   0.06251335   0.08884253   0.11028137   0.13458466   0.15216584
   0.17362442   0.21403823   0.23526046   0.24257566   0.25858368
   0.28161023   0.29583575   0.30372582   0.31245339   0.31815607
   0.33202015   0.33537994   0.3824185    0.38835314   0.40697731
   0.41550567   0.42875506   0.43188544   0.45519635   0.46664802
   0.47699437   0.4898634    0.52502017   0.57395808   0.59866467
   0.6283578    0.63302906   0.67362184   0.67816456   0.68437452
   0.69604945   0.72864121   0.73622543   0.74301976   0.77092396
   0.79805843   0.80759803   0.81762756   0.85303059   0.8698943
   0.89433789   0.92808835   0.93828126   0.99733873]
nelec by numeric integration = 146.00000385611108
    CPU time for vxc     37.45 sec, wall time     15.61 sec
E1 = -4113.673967574151  Ecoul = 1901.343794792866  Exc = -124.86056394713452
cycle= 11 E= -835.537786975622  delta_E= -5.92e-10  |g|= 2.92e-05  |ddm|= 0.00011
    CPU time for cycle= 11     37.91 sec, wall time     15.68 sec
  HOMO = -0.127150924217488  LUMO = -0.0201228777410152
  mo_energy =
[-10.0455451  -10.04522215 -10.0339867  -10.03115383 -10.02880966
 -10.02638126 -10.02541896 -10.02439362 -10.02398982 -10.02301819
 -10.02114638 -10.01611895 -10.01591439 -10.01580987 -10.01562118
 -10.01256281 -10.01204177 -10.00845459 -10.00684792 -10.005452
 -10.00182138  -9.99834769  -0.87301706  -0.84899085  -0.80902945
  -0.78962983  -0.77982143  -0.76716318  -0.74863377  -0.71812968
  -0.70898906  -0.68819505  -0.67345953  -0.64413449  -0.60994597
  -0.59071859  -0.577633    -0.57443227  -0.55019129  -0.54350587
  -0.53041151  -0.49434409  -0.48341057  -0.47267131  -0.46027949
  -0.44723412  -0.44014072  -0.42473544  -0.41221866  -0.40084886
  -0.39784625  -0.39596343  -0.3843543   -0.38210906  -0.3681272
  -0.3546375   -0.35024079  -0.32438099  -0.31473713  -0.30662188
  -0.29255171  -0.28569711  -0.27946022  -0.27418079  -0.25915488
  -0.24917032  -0.23680698  -0.23268393  -0.22171141  -0.20528304
  -0.19269103  -0.15780912  -0.12715092  -0.02012288   0.017936
   0.06251357   0.08884262   0.11028134   0.13458473   0.15216781
   0.17362502   0.21403863   0.23526183   0.24257496   0.25858404
   0.2816107    0.29583741   0.30372714   0.31245503   0.31815693
   0.33201986   0.33538194   0.38241829   0.38835272   0.40697709
   0.41550638   0.42875566   0.43188513   0.45519666   0.46664852
   0.47699629   0.48986488   0.52501998   0.57395766   0.5986643
   0.62835765   0.63302889   0.67362245   0.67816444   0.68437376
   0.6960506    0.72864107   0.73622513   0.74302198   0.77092543
   0.79805809   0.80759772   0.81762801   0.85303124   0.86989373
   0.89433888   0.92808962   0.93828175   0.99734257]
nelec by numeric integration = 146.0000038561092
    CPU time for vxc     38.38 sec, wall time     15.86 sec
E1 = -4113.673894343348  Ecoul = 1901.3437209069766  Exc = -124.860563292362
cycle= 12 E= -835.537786975937  delta_E= -3.15e-10  |g|= 9.64e-06  |ddm|= 5.84e-05
    CPU time for cycle= 12     38.78 sec, wall time     15.92 sec
  HOMO = -0.127150923706975  LUMO = -0.02012270328735
  mo_energy =
[-10.04554362 -10.04522358 -10.03398477 -10.0311545  -10.02881162
 -10.02638207 -10.02542005 -10.02439303 -10.02399019 -10.02301753
 -10.02114451 -10.01611702 -10.01591458 -10.01580941 -10.01561929
 -10.01256188 -10.01204188 -10.00845552 -10.00684813 -10.0054507
 -10.00182088  -9.99834885  -0.87301749  -0.84899068  -0.80902895
  -0.78962994  -0.77982097  -0.76716304  -0.7486338   -0.71812964
  -0.70898852  -0.68819506  -0.6734594   -0.6441344   -0.60994623
  -0.59071846  -0.57763276  -0.57443218  -0.55019102  -0.54350591
  -0.53041143  -0.49434403  -0.48341065  -0.47267116  -0.46027913
  -0.44723358  -0.44014078  -0.4247354   -0.41221874  -0.40084889
  -0.39784608  -0.3959635   -0.3843544   -0.38210928  -0.36812716
  -0.35463736  -0.35024063  -0.32438077  -0.31473678  -0.30662135
  -0.29255158  -0.28569731  -0.27946     -0.27418043  -0.25915472
  -0.2491705   -0.236807    -0.23268372  -0.22171119  -0.20528297
  -0.19269059  -0.15780916  -0.12715092  -0.0201227    0.0179359
   0.06251376   0.08884279   0.11028165   0.13458494   0.1521682
   0.17362481   0.214039     0.23526186   0.24257533   0.25858441
   0.28161082   0.29583733   0.3037271    0.31245499   0.31815695
   0.33201975   0.33538191   0.38241818   0.38835327   0.40697707
   0.41550625   0.42875569   0.43188569   0.45519677   0.46664832
   0.47699637   0.48986469   0.52502004   0.57395802   0.59866526
   0.62835824   0.63302909   0.67362216   0.67816421   0.68437379
   0.69605061   0.72864103   0.73622538   0.7430225    0.77092612
   0.798058     0.80759843   0.81762811   0.85303118   0.86989395
   0.8943383    0.92808926   0.93828174   0.99734278]
nelec by numeric integration = 146.00000385611065
    CPU time for vxc     38.30 sec, wall time     15.82 sec
E1 = -4113.673901206333  Ecoul = 1901.3437276676893  Exc = -124.86056319012687
cycle= 13 E= -835.537786975973  delta_E= -3.64e-11  |g|= 4.26e-06  |ddm|= 2.02e-05
    CPU time for cycle= 13     38.66 sec, wall time     15.88 sec
  HOMO = -0.127151031710011  LUMO = -0.0201227390418839
  mo_energy =
[-10.04554484 -10.04522182 -10.03398596 -10.03115341 -10.02881046
 -10.02638129 -10.02541834 -10.02439392 -10.02399075 -10.02301846
 -10.02114579 -10.01611905 -10.01591584 -10.01580957 -10.01562077
 -10.01256315 -10.01204155 -10.008455   -10.00684808 -10.00545194
 -10.00182167  -9.99834806  -0.87301686  -0.8489909   -0.80902947
  -0.78963015  -0.77982142  -0.76716336  -0.7486338   -0.71812984
  -0.70898898  -0.68819506  -0.67345956  -0.64413455  -0.60994588
  -0.59071889  -0.57763297  -0.57443235  -0.5501914   -0.54350607
  -0.53041168  -0.49434408  -0.48341049  -0.47267143  -0.46027946
  -0.44723384  -0.44014079  -0.42473546  -0.41221902  -0.40084884
  -0.39784636  -0.3959635   -0.38435424  -0.38210903  -0.36812727
  -0.3546375   -0.35024073  -0.32438103  -0.31473707  -0.30662164
  -0.29255176  -0.28569731  -0.27946025  -0.27418085  -0.25915503
  -0.2491704   -0.23680708  -0.23268394  -0.22171133  -0.20528327
  -0.19269097  -0.15780916  -0.12715103  -0.02012274   0.01793599
   0.06251358   0.08884241   0.11028135   0.13458457   0.15216777
   0.17362486   0.21403868   0.23526186   0.24257499   0.25858426
   0.28161073   0.29583734   0.30372724   0.31245492   0.31815679
   0.33201967   0.33538204   0.38241809   0.38835286   0.40697706
   0.41550679   0.42875569   0.43188542   0.45519658   0.46664822
   0.47699622   0.4898647    0.52502004   0.5739576    0.59866458
   0.62835764   0.63302887   0.67362233   0.67816445   0.68437368
   0.69605041   0.72864085   0.73622483   0.74302188   0.77092536
   0.79805789   0.80759784   0.81762792   0.85303126   0.86989348
   0.89433918   0.92808954   0.9382813    0.99734245]
nelec by numeric integration = 146.0000038561105
    CPU time for vxc     38.64 sec, wall time     15.95 sec
E1 = -4113.673895282179  Ecoul = 1901.3437223768972  Exc = -124.86056382346007
Extra cycle  E= -835.537786975945  delta_E= 2.86e-11  |g|= 8.36e-06  |ddm|= 1.85e-05
    CPU time for scf_cycle    586.62 sec, wall time    239.98 sec
    CPU time for SCF    586.62 sec, wall time    239.98 sec
converged SCF energy = -835.537786975945
nelec by numeric integration = 146.0000038561105
    CPU time for vxc     37.79 sec, wall time     15.61 sec
 ** Mulliken pop  **
pop of  0 C 1s            1.99040
pop of  0 C 2s            1.09323
pop of  0 C 2px           1.02248
pop of  0 C 2py           0.94329
pop of  0 C 2pz           0.96227
pop of  1 C 1s            1.99086
pop of  1 C 2s            1.11274
pop of  1 C 2px           0.96445
pop of  1 C 2py           0.94893
pop of  1 C 2pz           0.95696
pop of  2 C 1s            1.99109
pop of  2 C 2s            1.16889
pop of  2 C 2px           0.93866
pop of  2 C 2py           0.94878
pop of  2 C 2pz           0.98401
pop of  3 C 1s            1.99066
pop of  3 C 2s            1.10311
pop of  3 C 2px           0.98302
pop of  3 C 2py           0.97769
pop of  3 C 2pz           1.00667
pop of  4 C 1s            1.99125
pop of  4 C 2s            1.13176
pop of  4 C 2px           1.05435
pop of  4 C 2py           0.94264
pop of  4 C 2pz           1.03595
pop of  5 C 1s            1.99082
pop of  5 C 2s            1.10251
pop of  5 C 2px           1.02931
pop of  5 C 2py           0.96827
pop of  5 C 2pz           1.05543
pop of  6 C 1s            1.99151
pop of  6 C 2s            1.20710
pop of  6 C 2px           0.94111
pop of  6 C 2py           0.95030
pop of  6 C 2pz           0.92993
pop of  7 C 1s            1.99140
pop of  7 C 2s            1.09983
pop of  7 C 2px           1.04853
pop of  7 C 2py           1.05550
pop of  7 C 2pz           0.97337
pop of  8 C 1s            1.99093
pop of  8 C 2s            1.09487
pop of  8 C 2px           0.99897
pop of  8 C 2py           0.98640
pop of  8 C 2pz           0.94914
pop of  9 C 1s            1.99130
pop of  9 C 2s            1.18857
pop of  9 C 2px           0.94041
pop of  9 C 2py           0.94816
pop of  9 C 2pz           0.91692
pop of  10 C 1s           1.99123
pop of  10 C 2s           1.17385
pop of  10 C 2px          0.96763
pop of  10 C 2py          0.95503
pop of  10 C 2pz          0.98374
pop of  11 C 1s           1.99079
pop of  11 C 2s           1.14595
pop of  11 C 2px          0.99070
pop of  11 C 2py          0.95123
pop of  11 C 2pz          0.98467
pop of  12 C 1s           1.99128
pop of  12 C 2s           1.14793
pop of  12 C 2px          0.94915
pop of  12 C 2py          0.91158
pop of  12 C 2pz          0.95015
pop of  13 C 1s           1.99008
pop of  13 C 2s           1.02436
pop of  13 C 2px          1.02668
pop of  13 C 2py          1.01113
pop of  13 C 2pz          1.01843
pop of  14 C 1s           1.99124
pop of  14 C 2s           1.06351
pop of  14 C 2px          1.05362
pop of  14 C 2py          0.98675
pop of  14 C 2pz          1.06374
pop of  15 C 1s           1.99115
pop of  15 C 2s           1.11339
pop of  15 C 2px          0.98164
pop of  15 C 2py          0.94358
pop of  15 C 2pz          1.00745
pop of  16 C 1s           1.99156
pop of  16 C 2s           1.16109
pop of  16 C 2px          0.92819
pop of  16 C 2py          0.93881
pop of  16 C 2pz          0.96955
pop of  17 C 1s           1.99131
pop of  17 C 2s           1.17388
pop of  17 C 2px          1.00635
pop of  17 C 2py          0.94958
pop of  17 C 2pz          0.87127
pop of  18 C 1s           1.99116
pop of  18 C 2s           1.17853
pop of  18 C 2px          1.02385
pop of  18 C 2py          0.93597
pop of  18 C 2pz          0.99607
pop of  19 C 1s           1.99084
pop of  19 C 2s           1.12586
pop of  19 C 2px          0.98600
pop of  19 C 2py          0.96484
pop of  19 C 2pz          0.98647
pop of  20 C 1s           1.99093
pop of  20 C 2s           1.16762
pop of  20 C 2px          0.96548
pop of  20 C 2py          0.98051
pop of  20 C 2pz          0.94629
pop of  21 C 1s           1.99058
pop of  21 C 2s           1.10829
pop of  21 C 2px          1.02965
pop of  21 C 2py          1.00563
pop of  21 C 2pz          1.00076
pop of  22 H 1s           0.92589
pop of  23 H 1s           0.91784
pop of  24 H 1s           0.88394
pop of  25 H 1s           0.87848
pop of  26 H 1s           0.95857
pop of  27 H 1s           0.87266
pop of  28 H 1s           0.92260
pop of  29 H 1s           0.92022
pop of  30 H 1s           0.87223
pop of  31 H 1s           0.91172
pop of  32 H 1s           0.89081
pop of  33 H 1s           0.95184
pop of  34 H 1s           0.93922
pop of  35 H 1s           0.88068
 ** Mulliken atomic charges  **
charge of    0C =     -0.01168
charge of    1C =      0.02606
charge of    2C =     -0.03143
charge of    3C =     -0.06115
charge of    4C =     -0.15595
charge of    5C =     -0.14634
charge of    6C =     -0.01995
charge of    7C =     -0.16862
charge of    8C =     -0.02031
charge of    9C =      0.01465
charge of   10C =     -0.07149
charge of   11C =     -0.06334
charge of   12C =      0.04991
charge of   13C =     -0.07067
charge of   14C =     -0.15887
charge of   15C =     -0.03721
charge of   16C =      0.01079
charge of   17C =      0.00762
charge of   18C =     -0.12556
charge of   19C =     -0.05402
charge of   20C =     -0.05083
charge of   21C =     -0.13490
charge of   22H =      0.07411
charge of   23H =      0.08216
charge of   24H =      0.11606
charge of   25H =      0.12152
charge of   26H =      0.04143
charge of   27H =      0.12734
charge of   28H =      0.07740
charge of   29H =      0.07978
charge of   30H =      0.12777
charge of   31H =      0.08828
charge of   32H =      0.10919
charge of   33H =      0.04816
charge of   34H =      0.06078
charge of   35H =      0.11932
Dipole moment(X, Y, Z, Debye): -0.02653, -0.38282,  0.17796
nelec by numeric integration = 146.0000038561105
    CPU time for vxc     37.54 sec, wall time     15.71 sec
E1 = -4113.673895282179  Ecoul = 1901.3437223768976  Exc = -124.86056382346007
nelec by numeric integration = 146.0000038561105
    CPU time for vxc     37.73 sec, wall time     15.69 sec
E1 = -4113.673895282179  Ecoul = 1901.3437223768972  Exc = -124.86056382346007
