System: uname_result(system='Linux', node='cosmopc18', release='5.15.0-97-generic', version='#107-Ubuntu SMP Wed Feb 7 13:26:48 UTC 2024', machine='x86_64')  Threads 4
Python 3.11.8 (main, Feb 26 2024, 21:39:34) [GCC 11.2.0]
numpy 1.26.4  scipy 1.11.4
Date: Tue Apr  9 13:18:16 2024
PySCF version 2.3.0
PySCF path  /home/saade/miniconda3/envs/tutorial/lib/python3.11/site-packages/pyscf

[ENV] PYSCFAD_BACKEND torch
[CONFIG] conf_file None
[INPUT] verbose = 5
[INPUT] max_memory = 4000 
[INPUT] num. atoms = 36
[INPUT] num. electrons = 146
[INPUT] charge = 0
[INPUT] spin (= nelec alpha-beta = 2S) = 0
[INPUT] symmetry False subgroup None
[INPUT] Mole.unit = angstrom
[INPUT] Symbol           X                Y                Z      unit          X                Y                Z       unit  Magmom
[INPUT]  1 C     -0.162799000000   3.539448000000   0.782068000000 AA   -0.307645523353   6.688587352140   1.477894330786 Bohr   0.0
[INPUT]  2 C      0.012692000000   3.771662000000  -0.774134000000 AA    0.023984403973   7.127408214429  -1.462901243714 Bohr   0.0
[INPUT]  3 C     -0.045798000000   4.812692000000   1.309709000000 AA   -0.086545677053   9.094669801885   2.474991312878 Bohr   0.0
[INPUT]  4 C     -0.087310000000   2.669238000000   1.639117000000 AA   -0.164991987936   5.044128781282   3.097482216119 Bohr   0.0
[INPUT]  5 C     -0.023220000000   4.944215000000  -1.308063000000 AA   -0.043879440612   9.343212250966  -2.471880823677 Bohr   0.0
[INPUT]  6 C      0.066112000000   2.536488000000  -1.319877000000 AA    0.124933573547   4.793267638246  -2.494206048113 Bohr   0.0
[INPUT]  7 C     -0.000141000000   6.192177000000  -0.903768000000 AA   -0.000266451384  11.701518644831  -1.707874000146 Bohr   0.0
[INPUT]  8 C      0.052862000000   6.106840000000   0.759186000000 AA    0.099894702397  11.540255086539   1.434653617604 Bohr   0.0
[INPUT]  9 C      0.117437000000   1.055132000000   0.565933000000 AA    0.221923766891   1.993910505265   1.069458374853 Bohr   0.0
[INPUT] 10 C      0.013309000000   1.269324000000  -0.731927000000 AA    0.025150364992   2.398674723337  -1.383141573175 Bohr   0.0
[INPUT] 11 C     -0.024273000000   0.042858000000   1.443545000000 AA   -0.045869322222   0.080989882247   2.727904698485 Bohr   0.0
[INPUT] 12 C      0.090747000000   0.125282000000  -1.396580000000 AA    0.171486976626   0.236748668338  -2.639153711045 Bohr   0.0
[INPUT] 13 C      0.075876000000  -1.200103000000   0.615840000000 AA    0.143384859427  -2.267865991269   1.163768936552 Bohr   0.0
[INPUT] 14 C      0.029518000000  -1.183082000000  -0.808259000000 AA    0.055780935745  -2.235700962903  -1.527388147715 Bohr   0.0
[INPUT] 15 C     -0.070264000000  -2.415196000000   1.623207000000 AA   -0.132779716416  -4.564058977145   3.067416673477 Bohr   0.0
[INPUT] 16 C     -0.047901000000  -2.469649000000  -1.161373000000 AA   -0.090519771093  -4.666960233806  -2.194676898464 Bohr   0.0
[INPUT] 17 C      0.047878000000  -3.717731000000   0.767324000000 AA    0.090476307392  -7.025493394805   1.450032208806 Bohr   0.0
[INPUT] 18 C      0.008890000000  -3.686953000000  -0.593229000000 AA    0.016799665247  -6.967331404144  -1.121040339150 Bohr   0.0
[INPUT] 19 C      0.226651000000  -5.005096000000   1.453263000000 AA    0.428308315859  -9.458260667156   2.746269056964 Bohr   0.0
[INPUT] 20 C      0.005192000000  -4.967608000000  -1.429301000000 AA    0.009811458039  -9.387418614198  -2.700987439567 Bohr   0.0
[INPUT] 21 C      0.043830000000  -6.145087000000   0.679627000000 AA    0.082826696040 -11.612531441625   1.284308896860 Bohr   0.0
[INPUT] 22 C     -0.054727000000  -6.276864000000  -0.688648000000 AA   -0.103419041619 -11.861553881142  -1.301356116229 Bohr   0.0
[INPUT] 23 H     -0.057530000000   4.838487000000   2.401865000000 AA   -0.108715943946   9.143415287268   4.538867038178 Bohr   0.0
[INPUT] 24 H      0.056716000000   2.395458000000   2.616970000000 AA    0.107177706881   4.526759562898   4.945356576203 Bohr   0.0
[INPUT] 25 H      0.090704000000   4.882111000000  -2.492603000000 AA    0.171405718403   9.225852699726  -4.710337007269 Bohr   0.0
[INPUT] 26 H     -0.039795000000   2.440401000000  -2.399246000000 AA   -0.075201651127   4.611689524115  -4.533917845458 Bohr   0.0
[INPUT] 27 H     -0.108406000000   7.171894000000  -1.247298000000 AA   -0.204857650260  13.552915454411  -2.357051615718 Bohr   0.0
[INPUT] 28 H      0.095278000000   7.115567000000   1.211481000000 AA    0.180049325696  13.446472850993   2.289367295114 Bohr   0.0
[INPUT] 29 H      0.078565000000   0.081124000000   2.521666000000 AA    0.148466332976   0.153302142129   4.765258117627 Bohr   0.0
[INPUT] 30 H      0.013026000000  -0.184859000000  -2.553643000000 AA    0.024615572499  -0.349332881661  -4.825685889913 Bohr   0.0
[INPUT] 31 H     -0.067035000000  -2.540275000000   2.493258000000 AA   -0.126677790760  -4.800424031080   4.711574777881 Bohr   0.0
[INPUT] 32 H      0.075010000000  -2.399628000000  -2.505045000000 AA    0.141748356604  -4.534639720838  -4.733848979711 Bohr   0.0
[INPUT] 33 H      0.076914000000  -5.021778000000   2.503209000000 AA    0.145346395145  -9.489785078366   4.730379442546 Bohr   0.0
[INPUT] 34 H     -0.308426000000  -4.950678000000  -2.587241000000 AA   -0.582840669695  -9.355425550910  -4.889176908246 Bohr   0.0
[INPUT] 35 H     -0.046151000000  -7.010137000000   1.211003000000 AA   -0.087212750375 -13.247239025680   2.288464006027 Bohr   0.0
[INPUT] 36 H     -0.007494000000  -7.222132000000  -1.287272000000 AA   -0.014161607577 -13.647851515457  -2.432591527821 Bohr   0.0
[INPUT] ---------------- BASIS SET ---------------- 
[INPUT] l, kappa, [nprim/nctr], expnt,             c_1 c_2 ...
[INPUT] H
[INPUT] 0    0    [3    /1   ]  3.42525091        0.15432897
                                0.62391373        0.53532814
                                0.1688554         0.44463454
[INPUT] C
[INPUT] 0    0    [3    /1   ]  71.616837         0.15432897
                                13.045096         0.53532814
                                3.5305122         0.44463454
[INPUT] 0    0    [3    /1   ]  2.9412494         -0.09996723
                                0.6834831         0.39951283
                                0.2222899         0.70011547
[INPUT] 1    0    [3    /1   ]  2.9412494         0.15591627
                                0.6834831         0.60768372
                                0.2222899         0.39195739

nuclear repulsion = 1484.71846349704
number of shells = 80
number of NR pGTOs = 372
number of NR cGTOs = 124
basis = sto3g
ecp = {}
CPU time:     31709.74
atom C rad-grids = 99, ang-grids = [ 50  50  50  50  50  50  50  50  50  50  50  50  50  50  50  50  50  50
  50  50  50  50  50  50  50  50  50  50  50  50  50  86  86  86  86  86
  86  86  86  86  86  86  86 434 434 434 434 434 434 434 434 434 590 590
 590 590 590 590 590 590 590 590 590 590 590 590 590 590 590 590 590 590
 590 590 590 590 590 590 590 434 434 434 434 434 434 434 434 434 434 434
 434 434 434 434 434 434 434 434 434]
atom H rad-grids = 99, ang-grids = [ 50  50  50  50  50  50  50  50  50  50  50  50  50  50  50  50  50  50
  50  50  50  50  50  50  50  50  50  50  86  86  86  86  86  86  86 434
 434 434 434 434 434 434 434 590 590 590 590 590 590 590 590 590 590 590
 590 590 590 590 590 590 590 590 590 590 590 590 590 590 590 434 434 434
 434 434 434 434 434 434 434 434 434 434 434 434 434 434 434 434 434 434
 434 434 434 434 434 434 434 434 434]
tot_boxes 5440, boxes in each direction [ 8 30 15]
Padding 0 grids
tot grids = 1157832


******** <class 'pyscf.dft.rks.RKS'> ********
method = RKS
initial guess = minao
damping factor = 0
level_shift factor = 0
DIIS = <class 'pyscf.scf.diis.CDIIS'>
diis_start_cycle = 1
diis_space = 8
SCF conv_tol = 1e-10
SCF conv_tol_grad = None
SCF max_cycles = 50
direct_scf = True
direct_scf_tol = 1e-13
chkfile to save SCF result = /home/saade/mlelec/tutorials/tmph0osw_g6
max_memory 4000 MB (current use 637 MB)
XC library pyscf.dft.libxc version 6.1.0
    S. Lehtola, C. Steigemann, M. J.T. Oliveira, and M. A.L. Marques.,  SoftwareX 7, 1–5 (2018)
XC functionals = b3lypg
    P. J. Stephens, F. J. Devlin, C. F. Chabalowski, and M. J. Frisch.,  J. Phys. Chem. 98, 11623 (1994)
radial grids: 
    Treutler-Ahlrichs [JCP 102, 346 (1995); DOI:10.1063/1.469408] (M4) radial grids
    
becke partition: Becke, JCP 88, 2547 (1988); DOI:10.1063/1.454033
pruning grids: <function nwchem_prune at 0x7f9db5616ca0>
grids dens level: 3
symmetrized grids: False
atomic radii adjust function: <function treutler_atomic_radii_adjust at 0x7f9db5617380>
User specified grid scheme (99, 590)
small_rho_cutoff = 1e-07
Set gradient conv threshold to 1e-05
Initial guess from minao.
nelec by numeric integration = 145.2665845639789
    CPU time for vxc     36.80 sec, wall time     15.49 sec
E1 = -4070.208277789253  Ecoul = 1870.3843712393948  Exc = -125.85156374270014
init E= -840.957006795519
cond(S) = 18.760728987542695
    CPU time for initialize scf     46.45 sec, wall time     17.80 sec
  HOMO = -0.21027013048282  LUMO = -0.141866646837081
  mo_energy =
[-1.01336259e+01 -1.01249025e+01 -1.01144663e+01 -1.01135031e+01
 -1.01133090e+01 -1.01083149e+01 -1.01080727e+01 -1.01066327e+01
 -1.01037570e+01 -1.01034806e+01 -1.01025589e+01 -1.01017558e+01
 -1.00981402e+01 -1.00964550e+01 -1.00944820e+01 -1.00898306e+01
 -1.00876983e+01 -1.00866081e+01 -1.00821385e+01 -1.00758041e+01
 -1.00653458e+01 -1.00635368e+01 -1.09407379e+00 -1.05883740e+00
 -1.02767973e+00 -9.70798709e-01 -9.65227184e-01 -9.23160714e-01
 -9.01966776e-01 -8.69216863e-01 -8.64435585e-01 -8.18773995e-01
 -7.94964997e-01 -7.67527779e-01 -7.18428849e-01 -6.95635599e-01
 -6.94078582e-01 -6.76677665e-01 -6.55642904e-01 -6.44190626e-01
 -5.99530873e-01 -5.79405209e-01 -5.61777123e-01 -5.47391300e-01
 -5.45049190e-01 -5.31494838e-01 -5.07691685e-01 -5.00501539e-01
 -4.88192942e-01 -4.79662881e-01 -4.73777201e-01 -4.68306582e-01
 -4.59166893e-01 -4.53035473e-01 -4.49593206e-01 -4.42633179e-01
 -4.21846094e-01 -4.11110818e-01 -4.05130390e-01 -3.94863003e-01
 -3.70635422e-01 -3.65879129e-01 -3.63321744e-01 -3.42378577e-01
 -3.27844317e-01 -3.25850163e-01 -3.07420488e-01 -2.99517236e-01
 -2.81116649e-01 -2.77155481e-01 -2.58055279e-01 -2.33842067e-01
 -2.10270130e-01 -1.41866647e-01 -1.08172865e-01 -5.93851321e-02
 -5.01232506e-02 -2.83164942e-02 -1.84553942e-02  2.09731291e-03
  2.78182179e-02  4.14506678e-02  9.23974610e-02  1.00436170e-01
  1.25925266e-01  1.47451542e-01  1.61206357e-01  1.72471546e-01
  1.75537105e-01  2.04097469e-01  2.13492934e-01  2.20163252e-01
  2.32935535e-01  2.42292881e-01  2.51712438e-01  2.67973848e-01
  2.79293658e-01  2.91571295e-01  3.02239616e-01  3.20427823e-01
  3.25809500e-01  3.37322420e-01  3.53584735e-01  3.69988012e-01
  3.98244163e-01  4.07874921e-01  4.26660737e-01  4.35944591e-01
  4.49160010e-01  4.65343814e-01  4.91341535e-01  5.03774931e-01
  5.52414110e-01  5.59520552e-01  5.87675665e-01  5.98207662e-01
  5.99590719e-01  6.48707870e-01  6.59476374e-01  6.91419508e-01
  7.18935981e-01  7.41188930e-01  7.61239919e-01  8.34799504e-01]
nelec by numeric integration = 146.0000011389609
    CPU time for vxc     38.09 sec, wall time     15.74 sec
E1 = -4085.4023513612547  Ecoul = 1889.4348520921678  Exc = -124.52738355761618
cycle= 1 E= -835.776419329664  delta_E= 5.18  |g|= 0.29  |ddm|= 9.26
    CPU time for cycle= 1     38.42 sec, wall time     15.80 sec
  HOMO = -0.0933586388047108  LUMO = 0.00482250709509308
  mo_energy =
[-1.00461529e+01 -1.00308656e+01 -1.00248968e+01 -1.00190949e+01
 -1.00183395e+01 -1.00179646e+01 -1.00170900e+01 -1.00165307e+01
 -1.00047907e+01 -1.00044366e+01 -9.98876663e+00 -9.98309263e+00
 -9.97759455e+00 -9.97603303e+00 -9.97301271e+00 -9.96487922e+00
 -9.95199460e+00 -9.94723299e+00 -9.94192513e+00 -9.92600404e+00
 -9.91851983e+00 -9.91066426e+00 -8.37496871e-01 -8.09653112e-01
 -7.94671352e-01 -7.60917616e-01 -7.32290660e-01 -7.20778031e-01
 -7.00417990e-01 -6.90486320e-01 -6.79913100e-01 -6.35233521e-01
 -6.24403471e-01 -6.13391051e-01 -5.76319566e-01 -5.54497453e-01
 -5.52617888e-01 -5.41133876e-01 -5.22980219e-01 -5.12612272e-01
 -4.76809092e-01 -4.75615772e-01 -4.51364117e-01 -4.44888133e-01
 -4.31838282e-01 -4.21735052e-01 -3.98170594e-01 -3.91088188e-01
 -3.84357400e-01 -3.74989495e-01 -3.65615516e-01 -3.61753277e-01
 -3.54870967e-01 -3.50813664e-01 -3.38571657e-01 -3.28592571e-01
 -3.24864265e-01 -3.12664719e-01 -3.01577139e-01 -2.93931286e-01
 -2.84601330e-01 -2.58834574e-01 -2.41837066e-01 -2.34399407e-01
 -2.31062856e-01 -2.16678716e-01 -2.06956425e-01 -1.93856114e-01
 -1.73036465e-01 -1.71431538e-01 -1.28933189e-01 -1.14117094e-01
 -9.33586388e-02  4.82250710e-03  3.99818858e-02  8.99310290e-02
  1.02144060e-01  1.23206507e-01  1.38819414e-01  1.81011043e-01
  1.93269284e-01  2.05600981e-01  2.23119939e-01  2.57310082e-01
  2.68906223e-01  2.93237103e-01  3.10569892e-01  3.23322172e-01
  3.28388002e-01  3.43859259e-01  3.45932055e-01  3.56106412e-01
  3.62609903e-01  3.76521633e-01  4.04557181e-01  4.13565236e-01
  4.17536768e-01  4.37162552e-01  4.49193979e-01  4.52232403e-01
  4.65670995e-01  4.92539126e-01  5.09495255e-01  5.24587803e-01
  5.38712941e-01  5.50550041e-01  5.78298073e-01  5.87692259e-01
  5.98184944e-01  6.17471295e-01  6.44560174e-01  6.57140832e-01
  7.01223930e-01  7.38841161e-01  7.41932959e-01  7.46678412e-01
  7.55120812e-01  8.03131739e-01  8.24324844e-01  8.50403772e-01
  8.81479262e-01  8.99257880e-01  9.19420087e-01  1.03130425e+00]
nelec by numeric integration = 146.00000105293023
    CPU time for vxc     37.88 sec, wall time     15.69 sec
E1 = -4080.3896383355946  Ecoul = 1884.3093068559804  Exc = -124.39029020944625
cycle= 2 E= -835.752158192021  delta_E= 0.0243  |g|= 0.401  |ddm|= 1.04
    CPU time for cycle= 2     38.26 sec, wall time     15.76 sec
  HOMO = -0.110279725801513  LUMO = -0.00539636714234883
  mo_energy =
[-1.00398242e+01 -1.00328693e+01 -1.00209576e+01 -1.00137240e+01
 -1.00120288e+01 -1.00115168e+01 -1.00105197e+01 -1.00089563e+01
 -1.00089337e+01 -1.00082274e+01 -1.00079814e+01 -1.00052345e+01
 -1.00048121e+01 -1.00027318e+01 -9.99680652e+00 -9.99547025e+00
 -9.99384352e+00 -9.99067778e+00 -9.98939547e+00 -9.98365244e+00
 -9.98318600e+00 -9.95480378e+00 -8.49536248e-01 -8.24514340e-01
 -8.06461249e-01 -7.67893888e-01 -7.63632940e-01 -7.31533238e-01
 -7.18242794e-01 -6.94224614e-01 -6.90292071e-01 -6.56196305e-01
 -6.40344579e-01 -6.20490229e-01 -5.84554321e-01 -5.66488072e-01
 -5.63018734e-01 -5.51022459e-01 -5.34909055e-01 -5.21860148e-01
 -4.90007608e-01 -4.79249124e-01 -4.66165519e-01 -4.50092983e-01
 -4.44420747e-01 -4.33469354e-01 -4.13152918e-01 -4.01630839e-01
 -3.94758619e-01 -3.86469468e-01 -3.78734676e-01 -3.69365612e-01
 -3.66340088e-01 -3.62548092e-01 -3.54272520e-01 -3.38726731e-01
 -3.29222364e-01 -3.15495530e-01 -3.10833404e-01 -3.04468637e-01
 -2.90138608e-01 -2.66671681e-01 -2.63813672e-01 -2.54283814e-01
 -2.33669554e-01 -2.26404240e-01 -2.17385606e-01 -2.03397772e-01
 -1.81953755e-01 -1.78907300e-01 -1.62986180e-01 -1.35131742e-01
 -1.10279726e-01 -5.39636714e-03  2.84534380e-02  7.85241354e-02
  9.02692880e-02  1.09975431e-01  1.23042071e-01  1.49584234e-01
  1.74195579e-01  1.84132741e-01  2.33911027e-01  2.43870949e-01
  2.64363256e-01  2.91144428e-01  3.01373225e-01  3.17878854e-01
  3.25090194e-01  3.37750325e-01  3.49612489e-01  3.53619383e-01
  3.62110958e-01  3.78467284e-01  3.89295429e-01  4.00322735e-01
  4.14965110e-01  4.32784568e-01  4.37079564e-01  4.54567848e-01
  4.60984658e-01  4.69074972e-01  4.88103888e-01  5.04979828e-01
  5.28900771e-01  5.36918075e-01  5.58681861e-01  5.75173769e-01
  5.85186352e-01  6.07134095e-01  6.32074734e-01  6.40859814e-01
  6.95956199e-01  7.06681901e-01  7.28283799e-01  7.31470065e-01
  7.40121089e-01  7.91999622e-01  8.04477907e-01  8.21170354e-01
  8.67284223e-01  8.89120430e-01  9.06072888e-01  9.82384639e-01]
nelec by numeric integration = 146.00000106919595
    CPU time for vxc     38.35 sec, wall time     15.82 sec
E1 = -4081.8176436272615  Ecoul = 1885.7162779756743  Exc = -124.4155352147103
cycle= 3 E= -835.798437369258  delta_E= -0.0463  |g|= 0.191  |ddm|= 0.843
    CPU time for cycle= 3     38.95 sec, wall time     15.92 sec
  HOMO = -0.117011907895109  LUMO = -0.0142953616696492
  mo_energy =
[-10.04961379 -10.03441972 -10.03413568 -10.03291285 -10.03161501
 -10.0300321  -10.02977433 -10.02410818 -10.02299989 -10.01805666
 -10.01679669 -10.01638367 -10.01514554 -10.01062059 -10.00646908
 -10.00567336 -10.00020489  -9.99809885  -9.99675858  -9.99420725
  -9.98557795  -9.98478957  -0.86135567  -0.83401922  -0.81611604
  -0.77713061  -0.76877813  -0.740036    -0.72329074  -0.70360897
  -0.69700514  -0.65872165  -0.6436299   -0.63041118  -0.59208497
  -0.57339165  -0.569759    -0.55696703  -0.53997563  -0.52905758
  -0.49398318  -0.4837057   -0.46779187  -0.45727061  -0.44758666
  -0.43998172  -0.41599505  -0.40970969  -0.39926873  -0.39281126
  -0.38386425  -0.37708336  -0.3731163   -0.37244853  -0.35936936
  -0.34826281  -0.33728202  -0.32497411  -0.31970486  -0.31118885
  -0.29727971  -0.27502243  -0.26997705  -0.25863643  -0.24767928
  -0.23377558  -0.22505556  -0.211404    -0.19017801  -0.18863854
  -0.16950147  -0.14064989  -0.11701191  -0.01429536   0.02192521
   0.06950062   0.08083915   0.1034108    0.11575381   0.1426181
   0.16652343   0.17572797   0.21931244   0.23447172   0.25725687
   0.2818725    0.30104636   0.30806482   0.31469305   0.330371
   0.34067192   0.34672432   0.35725299   0.3683629    0.38765075
   0.39834007   0.40788235   0.42661704   0.43131902   0.44822316
   0.45527083   0.46630813   0.4852822    0.50058125   0.5251776
   0.5327658    0.55530206   0.56732987   0.57924096   0.59711299
   0.62388477   0.6341452    0.68456293   0.70021096   0.72157806
   0.726819     0.73009292   0.78060629   0.79496736   0.82177346
   0.85550496   0.87248606   0.89610866   0.97904461]
nelec by numeric integration = 146.00000112062372
    CPU time for vxc     37.90 sec, wall time     15.70 sec
E1 = -4082.8423664510747  Ecoul = 1886.7473153774804  Exc = -124.4333542183806
cycle= 4 E= -835.809941794936  delta_E= -0.0115  |g|= 0.0712  |ddm|= 0.354
    CPU time for cycle= 4     38.33 sec, wall time     15.77 sec
  HOMO = -0.116723154168  LUMO = -0.0133564915777287
  mo_energy =
[-10.04307027 -10.03561868 -10.02992104 -10.02901202 -10.02488502
 -10.02452262 -10.02062549 -10.01867129 -10.01831172 -10.01563794
 -10.01533207 -10.01520727 -10.01512722 -10.01195816 -10.00983044
 -10.00793714 -10.00302879 -10.00080713  -9.99748634  -9.99711181
  -9.99198411  -9.98984247  -0.85676049  -0.83187992  -0.8138733
  -0.77514833  -0.76766266  -0.73876727  -0.72260886  -0.70298405
  -0.69614181  -0.65924427  -0.64410157  -0.62971988  -0.59014171
  -0.57101916  -0.56850446  -0.5561447   -0.53923373  -0.52814893
  -0.49349966  -0.48320545  -0.46728774  -0.45794488  -0.44643044
  -0.43933473  -0.4152698   -0.40826003  -0.39842949  -0.391915
  -0.38301369  -0.37619598  -0.37209936  -0.36958523  -0.35941598
  -0.34677795  -0.3364996   -0.32324676  -0.31798642  -0.31024731
  -0.2964734   -0.27338671  -0.26921133  -0.25864002  -0.24491251
  -0.23388936  -0.22672794  -0.21125615  -0.1891724   -0.18876773
  -0.16725384  -0.14096206  -0.11672315  -0.01335649   0.02220127
   0.07120561   0.08131714   0.1029645    0.11588615   0.14594568
   0.16781961   0.17743453   0.22283155   0.23628171   0.25776484
   0.28242649   0.29939275   0.31022965   0.31206753   0.33128878
   0.34229162   0.34708337   0.35795767   0.37037455   0.38669438
   0.39872709   0.40820438   0.4278995    0.43236211   0.44757809
   0.45502766   0.46721744   0.4863298    0.50264935   0.52553631
   0.53337295   0.55629198   0.56882054   0.58007717   0.59676586
   0.62540115   0.63508937   0.6864844    0.70228429   0.72328408
   0.7265521    0.73219576   0.78418045   0.79613741   0.82115857
   0.85825155   0.87716151   0.89646744   0.98130844]
nelec by numeric integration = 146.00000109549842
    CPU time for vxc     38.06 sec, wall time     15.75 sec
E1 = -4082.386860290981  Ecoul = 1886.2882956279811  Exc = -124.43132783393213
cycle= 5 E= -835.811428999893  delta_E= -0.00149  |g|= 0.0289  |ddm|= 0.137
    CPU time for cycle= 5     38.69 sec, wall time     15.85 sec
  HOMO = -0.116258708950174  LUMO = -0.0130645738040968
  mo_energy =
[-10.04670858 -10.03611771 -10.02979925 -10.02923431 -10.02776513
 -10.02294633 -10.0203725  -10.0198901  -10.01833556 -10.01788013
 -10.0155451  -10.01467765 -10.01245097 -10.00901352 -10.00763821
 -10.00537466 -10.00379804 -10.00049634  -9.99588673  -9.99297015
  -9.98927886  -9.98408314  -0.85788513  -0.83137409  -0.81353456
  -0.77519215  -0.76672074  -0.73831553  -0.72232257  -0.70232959
  -0.69576427  -0.6580309   -0.64290049  -0.62934956  -0.59028101
  -0.57129044  -0.56839279  -0.55556965  -0.53883318  -0.52741294
  -0.49313273  -0.48295517  -0.46617086  -0.45709109  -0.44646316
  -0.43887412  -0.41527403  -0.40846535  -0.39835718  -0.3919234
  -0.38288929  -0.37513072  -0.37185179  -0.37009799  -0.35853768
  -0.3463282   -0.33630326  -0.32388244  -0.3178708   -0.3099494
  -0.29669111  -0.27345956  -0.26825997  -0.25825488  -0.24565329
  -0.23296594  -0.22528023  -0.21072352  -0.18892296  -0.18776868
  -0.16701038  -0.14010228  -0.11625871  -0.01306457   0.02264951
   0.07134392   0.08233064   0.10385383   0.11664354   0.14621156
   0.16857054   0.17773913   0.22192687   0.23640854   0.25830657
   0.2833263    0.30018618   0.31017765   0.3143125    0.33123619
   0.34165503   0.34830943   0.35785134   0.36989625   0.38734967
   0.39923784   0.40899913   0.42819876   0.43234721   0.44819929
   0.45560057   0.46773115   0.48652667   0.50222791   0.52554778
   0.53330119   0.55717988   0.56906054   0.58043523   0.59853263
   0.62518646   0.63553526   0.68675691   0.70354146   0.72310632
   0.72737527   0.732273     0.78359824   0.79689644   0.82202495
   0.85812931   0.87672537   0.897101     0.98238676]
nelec by numeric integration = 146.0000010969139
    CPU time for vxc     38.62 sec, wall time     15.93 sec
E1 = -4082.4661741966656  Ecoul = 1886.365339680423  Exc = -124.42933382524595
cycle= 6 E= -835.811704844449  delta_E= -0.000276  |g|= 0.00956  |ddm|= 0.0526
    CPU time for cycle= 6     39.06 sec, wall time     16.01 sec
  HOMO = -0.116038648851737  LUMO = -0.0126088092793816
  mo_energy =
[-10.04535264 -10.03599975 -10.02984191 -10.0285963  -10.02512394
 -10.02330482 -10.01930925 -10.01895365 -10.01852932 -10.01759493
 -10.01559452 -10.01448657 -10.01087107 -10.00849992 -10.00759884
 -10.00580475 -10.00377917 -10.00033764  -9.99563861  -9.9927696
  -9.98900737  -9.98496986  -0.85709196  -0.83123471  -0.81333793
  -0.77476385  -0.76662544  -0.73805321  -0.72192019  -0.70200851
  -0.69562733  -0.65789575  -0.64275755  -0.62895407  -0.58990103
  -0.57095424  -0.56818907  -0.55548471  -0.53860213  -0.52732369
  -0.49284776  -0.48273391  -0.46624724  -0.4568243   -0.4461175
  -0.43883137  -0.41497315  -0.40796815  -0.39815371  -0.3915623
  -0.3825639   -0.37501458  -0.37178894  -0.3696751   -0.35851002
  -0.34623432  -0.33603399  -0.32342023  -0.31761822  -0.30970691
  -0.29635355  -0.27307579  -0.26816502  -0.257976    -0.24550844
  -0.2328005   -0.22522118  -0.21038875  -0.18875177  -0.18757054
  -0.16680812  -0.13990416  -0.11603865  -0.01260881   0.02301909
   0.07162541   0.0825242    0.10412788   0.11689538   0.14642278
   0.16871813   0.17801613   0.22203347   0.23664624   0.25844339
   0.28342449   0.30056097   0.31065204   0.31434168   0.33147043
   0.34227614   0.34830561   0.35803227   0.37043033   0.38750023
   0.39938733   0.40916968   0.42843391   0.43268863   0.44843541
   0.45570216   0.46785861   0.48662797   0.5025663    0.52586088
   0.53370217   0.55718814   0.5693835    0.58072876   0.59861671
   0.62577826   0.63575157   0.68705518   0.70355812   0.72377307
   0.72759069   0.73250415   0.78410535   0.79711237   0.82219345
   0.85860383   0.87703781   0.89738713   0.98238265]
nelec by numeric integration = 146.00000109735515
    CPU time for vxc     38.15 sec, wall time     15.76 sec
E1 = -4082.4359544408294  Ecoul = 1886.3346135825811  Exc = -124.42885848620398
cycle= 7 E= -835.811735847413  delta_E= -3.1e-05  |g|= 0.00239  |ddm|= 0.0155
    CPU time for cycle= 7     38.54 sec, wall time     15.82 sec
  HOMO = -0.116047801128341  LUMO = -0.0125784595473997
  mo_energy =
[-10.04536362 -10.03547153 -10.02953    -10.02872998 -10.02567333
 -10.02338762 -10.01910095 -10.01880189 -10.01847983 -10.01763021
 -10.01530893 -10.01408208 -10.01088016 -10.00843799 -10.00780286
 -10.00560689 -10.00398909 -10.00024603  -9.99540965  -9.99304187
  -9.98893697  -9.98528545  -0.85713976  -0.83113315  -0.8132732
  -0.77475897  -0.76654752  -0.73801245  -0.72194717  -0.70198246
  -0.69557062  -0.65789862  -0.64278222  -0.62893869  -0.58989285
  -0.5709446   -0.56815717  -0.55543153  -0.53856397  -0.52730829
  -0.4928362   -0.48271749  -0.46621623  -0.45684443  -0.44612475
  -0.43877968  -0.41498235  -0.40795716  -0.39811114  -0.39154442
  -0.38257438  -0.37503769  -0.37174448  -0.36966328  -0.35845943
  -0.34613985  -0.33597516  -0.32340422  -0.31757285  -0.30966102
  -0.2963227   -0.27307396  -0.26810203  -0.25797122  -0.24536672
  -0.2327764   -0.22521475  -0.21038752  -0.18868644  -0.18756779
  -0.16678371  -0.13989704  -0.1160478   -0.01257846   0.02307193
   0.07167987   0.08252844   0.10411934   0.1169252    0.14644889
   0.16875138   0.17803295   0.22220064   0.23669192   0.25853417
   0.28349668   0.30055185   0.3106829    0.31432653   0.33154786
   0.34222228   0.34828811   0.35807085   0.37041394   0.3875507
   0.39942859   0.40918963   0.42845477   0.43270198   0.4484988
   0.45579569   0.46789361   0.48669093   0.5025937    0.52592645
   0.5337373    0.55723004   0.56938027   0.58070596   0.59856675
   0.62575946   0.6357797    0.68708977   0.70355121   0.72372633
   0.72755587   0.73253899   0.78411444   0.79718641   0.82214259
   0.8586244    0.87706932   0.89749243   0.98245017]
nelec by numeric integration = 146.00000109739793
    CPU time for vxc     38.12 sec, wall time     15.73 sec
E1 = -4082.432980791389  Ecoul = 1886.3316288480132  Exc = -124.42884911803665
cycle= 8 E= -835.811737564373  delta_E= -1.72e-06  |g|= 0.000891  |ddm|= 0.00419
    CPU time for cycle= 8     38.76 sec, wall time     15.83 sec
  HOMO = -0.116052927905153  LUMO = -0.0125773352808352
  mo_energy =
[-10.04529098 -10.03550021 -10.02955736 -10.02873357 -10.02562229
 -10.02345361 -10.01910188 -10.01879111 -10.01854455 -10.01763861
 -10.01532539 -10.01423446 -10.01088622 -10.00853021 -10.00777808
 -10.00564191 -10.00385303 -10.00018363  -9.99561471  -9.99293559
  -9.9891035   -9.98519085  -0.85712089  -0.83116071  -0.81328234
  -0.7747522   -0.76661636  -0.73801562  -0.72193486  -0.7019881
  -0.69556873  -0.65791558  -0.64278754  -0.62895187  -0.58988904
  -0.57093556  -0.56814776  -0.55544922  -0.53859748  -0.52732119
  -0.49285451  -0.48272108  -0.4662834   -0.45685475  -0.44611946
  -0.43878648  -0.4149717   -0.40795719  -0.3980978   -0.39154306
  -0.38256788  -0.37505054  -0.37175     -0.36965764  -0.35849264
  -0.3461579   -0.33599298  -0.32338004  -0.31757371  -0.3096774
  -0.29632314  -0.27306485  -0.26815994  -0.25795623  -0.24532688
  -0.23278397  -0.22522578  -0.21038677  -0.18869185  -0.18757953
  -0.16680651  -0.13992105  -0.11605293  -0.01257734   0.0230626
   0.0716802    0.08251606   0.10411685   0.1169174    0.1464244
   0.16872832   0.17801563   0.22224931   0.23669373   0.25852534
   0.28347736   0.30056528   0.31067909   0.31430737   0.33153735
   0.34225254   0.34826858   0.35806934   0.37043765   0.3875622
   0.39940648   0.40916723   0.42844903   0.43270405   0.44847759
   0.45577793   0.46785138   0.48669027   0.50257917   0.52591927
   0.53372954   0.5571748    0.56937724   0.58070544   0.59855093
   0.6257562    0.63577578   0.68709223   0.70348969   0.72373567
   0.72756514   0.7325554    0.78413236   0.79716763   0.8221729
   0.85863474   0.87709258   0.89746961   0.9823477 ]
nelec by numeric integration = 146.00000109742868
    CPU time for vxc     38.00 sec, wall time     15.74 sec
E1 = -4082.433944943898  Ecoul = 1886.3326443028081  Exc = -124.42890065650303
cycle= 9 E= -835.811737800553  delta_E= -2.36e-07  |g|= 0.000366  |ddm|= 0.00167
    CPU time for cycle= 9     38.47 sec, wall time     15.82 sec
  HOMO = -0.116058935401362  LUMO = -0.0125815679815389
  mo_energy =
[-10.04533083 -10.03557067 -10.02957192 -10.02872741 -10.02559833
 -10.02341298 -10.01910165 -10.01878845 -10.01857597 -10.01771893
 -10.015362   -10.01422477 -10.01090123 -10.00853995 -10.00774451
 -10.00565187 -10.00388017 -10.0002441   -9.99553885  -9.99294259
  -9.98904934  -9.98522603  -0.85713364  -0.8311687   -0.81329354
  -0.7747603   -0.7666072   -0.73802994  -0.72193955  -0.7020028
  -0.69557683  -0.65791711  -0.64278893  -0.62896374  -0.58990243
  -0.57093921  -0.56815368  -0.55545117  -0.53859977  -0.52732302
  -0.49286144  -0.48273281  -0.46626665  -0.45686177  -0.44612925
  -0.43878743  -0.4149732   -0.4079724   -0.39810666  -0.39155348
  -0.38258046  -0.37505135  -0.37175903  -0.3696675   -0.35849106
  -0.34616499  -0.33599703  -0.32338026  -0.31758523  -0.30968639
  -0.2963267   -0.27307051  -0.26815512  -0.25796391  -0.24532093
  -0.23279262  -0.22523057  -0.21039374  -0.18870139  -0.18758758
  -0.16680228  -0.13992701  -0.11605894  -0.01258157   0.0230534
   0.07167289   0.08251339   0.10411312   0.11691142   0.14643337
   0.16872744   0.17801417   0.22225522   0.23668568   0.2585128
   0.28347188   0.30056046   0.31066957   0.31429811   0.33153642
   0.34225384   0.34826848   0.35806723   0.3704368    0.38755319
   0.39940325   0.40916345   0.42843818   0.43268945   0.44846741
   0.45576932   0.46785727   0.48667096   0.50257526   0.52590269
   0.53371452   0.55718487   0.56937185   0.58070132   0.59854503
   0.62574867   0.63576519   0.6870805    0.70350651   0.72372241
   0.72756208   0.7325446    0.78411618   0.79714549   0.8221626
   0.85861548   0.8770834    0.89744168   0.98238388]
nelec by numeric integration = 146.00000109746748
    CPU time for vxc     37.95 sec, wall time     15.77 sec
E1 = -4082.4348397503295  Ecoul = 1886.3335555307654  Exc = -124.42891712138557
cycle= 10 E= -835.811737843911  delta_E= -4.34e-08  |g|= 0.000128  |ddm|= 0.000663
    CPU time for cycle= 10     38.58 sec, wall time     15.87 sec
  HOMO = -0.116063221957451  LUMO = -0.0125840597064044
  mo_energy =
[-10.04533676 -10.03556485 -10.02957338 -10.02873894 -10.02562122
 -10.02340901 -10.01910883 -10.01880501 -10.01854985 -10.01769977
 -10.01535116 -10.0142271  -10.01090883 -10.00852784 -10.00775995
 -10.00564613 -10.00389245 -10.00023829  -9.99556224  -9.99295329
  -9.98904872  -9.98520531  -0.85713892  -0.83116842  -0.81329461
  -0.77476485  -0.76660522  -0.73802838  -0.72194331  -0.70200058
  -0.69557905  -0.65791481  -0.64278844  -0.62896341  -0.58990389
  -0.57094412  -0.56815712  -0.55545193  -0.53859873  -0.52732279
  -0.4928585   -0.48273235  -0.46626686  -0.45686085  -0.44612813
  -0.4387901   -0.4149764   -0.40797212  -0.39811025  -0.39155438
  -0.38257878  -0.37504928  -0.37175855  -0.36967054  -0.3584865
  -0.34616532  -0.33599792  -0.3233901   -0.31758603  -0.30968399
  -0.29633073  -0.27307549  -0.2681529   -0.25796652  -0.24533693
  -0.23279056  -0.22522687  -0.21039508  -0.18870393  -0.18758492
  -0.16680607  -0.13992578  -0.11606322  -0.01258406   0.02305416
   0.07166992   0.08251415   0.10411171   0.11691206   0.14642706
   0.16872655   0.17801296   0.22223639   0.2366835    0.25851433
   0.28347231   0.30055856   0.31066745   0.31430449   0.33153246
   0.34224457   0.3482716    0.3580632    0.37042779   0.38755184
   0.39940487   0.40916553   0.42844043   0.43269191   0.44847004
   0.45576947   0.46785791   0.48667341   0.5025772    0.52590402
   0.53371562   0.5571858    0.56936997   0.58070121   0.59855198
   0.62574844   0.63576614   0.68707751   0.70350984   0.7237206
   0.72755792   0.73253989   0.78411235   0.79715089   0.82216
   0.8586152    0.87707472   0.89744918   0.98237886]
nelec by numeric integration = 146.00000109746685
    CPU time for vxc     37.88 sec, wall time     15.74 sec
E1 = -4082.4348289145555  Ecoul = 1886.333542205413  Exc = -124.42891463804875
cycle= 11 E= -835.811737850152  delta_E= -6.24e-09  |g|= 3.63e-05  |ddm|= 0.000232
    CPU time for cycle= 11     38.52 sec, wall time     15.84 sec
  HOMO = -0.116061830145966  LUMO = -0.0125821365670733
  mo_energy =
[-10.04533309 -10.03555779 -10.02957246 -10.02873656 -10.02561954
 -10.02341282 -10.0191119  -10.01880458 -10.01855069 -10.01769782
 -10.01535298 -10.01423062 -10.01090383 -10.00852609 -10.00775957
 -10.00564748 -10.00388616 -10.00023222  -9.99555185  -9.99294725
  -9.98904715  -9.98521007  -0.85713723  -0.83116721  -0.81329329
  -0.77476348  -0.76660335  -0.73802769  -0.72194229  -0.7019998
  -0.69557785  -0.65791382  -0.64278712  -0.62896218  -0.5899025
  -0.57094317  -0.56815624  -0.55545119  -0.53859749  -0.52732209
  -0.49285755  -0.48273085  -0.46626471  -0.45685983  -0.44612756
  -0.43878963  -0.41497636  -0.40797077  -0.39810909  -0.39155328
  -0.38257813  -0.37504892  -0.37175767  -0.36966925  -0.35848636
  -0.34616452  -0.33599772  -0.32338955  -0.31758491  -0.30968335
  -0.29633031  -0.27307418  -0.26815127  -0.25796558  -0.24533714
  -0.2327904   -0.22522693  -0.21039416  -0.18870295  -0.18758439
  -0.16680355  -0.13992473  -0.11606183  -0.01258214   0.02305555
   0.07167104   0.08251453   0.10411271   0.11691205   0.14643101
   0.16872856   0.17801422   0.22223654   0.23668447   0.25851517
   0.28347292   0.3005584    0.31066852   0.31430482   0.3315321
   0.34224471   0.34827218   0.35806394   0.37042849   0.38755248
   0.3994046    0.40916608   0.42844109   0.43269225   0.44847045
   0.45576988   0.46785875   0.48667481   0.50257752   0.52590538
   0.53371722   0.55718763   0.56937095   0.58070092   0.59855148
   0.62574811   0.63576669   0.68707927   0.70351004   0.72372214
   0.72755985   0.73254163   0.78411409   0.7971528    0.82216225
   0.85861738   0.87707713   0.89745079   0.98238206]
nelec by numeric integration = 146.00000109745778
    CPU time for vxc     37.97 sec, wall time     15.72 sec
E1 = -4082.4347614079934  Ecoul = 1886.3334717674236  Exc = -124.42891170691232
cycle= 12 E= -835.811737850443  delta_E= -2.91e-10  |g|= 2.24e-05  |ddm|= 7.2e-05
    CPU time for cycle= 12     38.87 sec, wall time     15.85 sec
  HOMO = -0.116062402217713  LUMO = -0.0125822476575252
  mo_energy =
[-10.04533446 -10.03555903 -10.02957203 -10.02873552 -10.02561853
 -10.02341412 -10.01910988 -10.01880315 -10.01855286 -10.01769998
 -10.01535382 -10.01422628 -10.0109047  -10.00852526 -10.00775897
 -10.00564746 -10.00388779 -10.0002364   -9.99555596  -9.9929498
  -9.98904969  -9.98520783  -0.85713757  -0.83116778  -0.81329372
  -0.77476365  -0.76660487  -0.73802789  -0.72194245  -0.70199985
  -0.69557803  -0.65791441  -0.64278758  -0.62896249  -0.58990289
  -0.57094326  -0.56815633  -0.55545137  -0.53859811  -0.52732227
  -0.49285813  -0.48273119  -0.46626578  -0.45685989  -0.44612801
  -0.4387894   -0.41497626  -0.40797124  -0.39810946  -0.39155365
  -0.38257849  -0.37504914  -0.37175798  -0.36966956  -0.35848712
  -0.34616476  -0.3359975   -0.32338929  -0.31758528  -0.30968391
  -0.29633008  -0.27307438  -0.2681526   -0.25796594  -0.24533652
  -0.23279047  -0.22522697  -0.21039425  -0.18870297  -0.18758457
  -0.16680478  -0.1399255   -0.1160624   -0.01258225   0.02305527
   0.07167106   0.08251438   0.10411246   0.11691209   0.14642944
   0.16872766   0.17801356   0.22223715   0.23668407   0.25851469
   0.28347275   0.30055865   0.31066816   0.31430488   0.33153292
   0.34224504   0.34827197   0.35806416   0.37042879   0.38755228
   0.39940482   0.40916598   0.4284409    0.43269192   0.44847056
   0.45576994   0.46785812   0.4866737    0.50257677   0.52590498
   0.53371653   0.5571866    0.56937084   0.58070109   0.59855143
   0.6257483    0.63576639   0.68707912   0.70350892   0.72372174
   0.72755956   0.73254125   0.78411376   0.79715199   0.82216157
   0.8586167    0.87707706   0.89744986   0.98237995]
nelec by numeric integration = 146.00000109745724
    CPU time for vxc     38.65 sec, wall time     15.87 sec
E1 = -4082.4347970422473  Ecoul = 1886.3335087520131  Exc = -124.428913057414
cycle= 13 E= -835.811737850609  delta_E= -1.66e-10  |g|= 9.1e-06  |ddm|= 4.55e-05
    CPU time for cycle= 13     39.26 sec, wall time     15.96 sec
  HOMO = -0.116062338938136  LUMO = -0.0125821530947153
  mo_energy =
[-10.04533451 -10.03555917 -10.02957215 -10.02873609 -10.02561922
 -10.02341295 -10.01910987 -10.01880352 -10.01855303 -10.01770084
 -10.01535267 -10.01422782 -10.01090415 -10.0085254  -10.00775815
 -10.00564652 -10.00388819 -10.00023486  -9.99555521  -9.99294844
  -9.98904892  -9.98520791  -0.85713766  -0.83116765  -0.81329357
  -0.77476352  -0.7666046   -0.73802782  -0.72194221  -0.70199987
  -0.69557785  -0.65791415  -0.64278733  -0.62896259  -0.58990293
  -0.57094319  -0.56815619  -0.55545124  -0.53859808  -0.52732223
  -0.49285812  -0.48273119  -0.46626561  -0.45685993  -0.44612787
  -0.43878935  -0.41497602  -0.40797122  -0.39810919  -0.39155353
  -0.38257845  -0.37504909  -0.37175786  -0.36966959  -0.35848699
  -0.34616466  -0.33599744  -0.32338917  -0.31758519  -0.30968383
  -0.29633002  -0.27307422  -0.26815238  -0.25796555  -0.24533624
  -0.23279033  -0.22522688  -0.21039405  -0.18870289  -0.18758445
  -0.16680457  -0.13992539  -0.11606234  -0.01258215   0.02305539
   0.07167112   0.08251456   0.10411271   0.11691229   0.14642959
   0.16872782   0.17801377   0.22223736   0.23668422   0.25851473
   0.2834728    0.30055909   0.31066811   0.31430485   0.33153286
   0.34224511   0.34827193   0.35806416   0.37042883   0.38755271
   0.39940498   0.4091659    0.42844082   0.43269192   0.44847042
   0.45577008   0.46785829   0.48667404   0.50257683   0.52590509
   0.53371663   0.55718679   0.56937094   0.58070128   0.59855146
   0.62574844   0.63576665   0.6870791    0.70350932   0.7237217
   0.72755982   0.73254155   0.78411377   0.79715195   0.82216197
   0.85861656   0.8770769    0.89744971   0.98238054]
nelec by numeric integration = 146.00000109746057
    CPU time for vxc     38.24 sec, wall time     15.80 sec
E1 = -4082.4348068328586  Ecoul = 1886.3335186069385  Exc = -124.42891312175679
cycle= 14 E= -835.811737850637  delta_E= -2.82e-11  |g|= 2.62e-06  |ddm|= 1.62e-05
    CPU time for cycle= 14     38.85 sec, wall time     15.89 sec
  HOMO = -0.1160624081172  LUMO = -0.0125821560868986
  mo_energy =
[-10.04533397 -10.03555952 -10.02957204 -10.02873626 -10.02561926
 -10.02341273 -10.01911017 -10.01880352 -10.01855197 -10.01769959
 -10.01535331 -10.01422706 -10.0109051  -10.00852626 -10.00775913
 -10.00564702 -10.00388732 -10.00023572  -9.99555498  -9.99294924
  -9.98904859  -9.98520845  -0.85713749  -0.83116761  -0.81329361
  -0.77476371  -0.76660435  -0.73802784  -0.72194243  -0.70199994
  -0.69557797  -0.65791422  -0.64278744  -0.62896256  -0.58990287
  -0.5709432   -0.56815627  -0.55545132  -0.53859801  -0.52732225
  -0.49285804  -0.48273128  -0.46626548  -0.45686006  -0.44612782
  -0.43878946  -0.41497616  -0.4079712   -0.39810939  -0.39155361
  -0.38257842  -0.37504907  -0.37175795  -0.36966948  -0.35848683
  -0.34616466  -0.33599752  -0.32338923  -0.31758519  -0.30968373
  -0.29633015  -0.2730744   -0.26815219  -0.25796581  -0.2453363
  -0.23279042  -0.22522697  -0.21039429  -0.18870297  -0.18758454
  -0.16680441  -0.13992539  -0.11606241  -0.01258216   0.02305538
   0.07167109   0.08251444   0.10411246   0.11691215   0.14642989
   0.16872788   0.17801373   0.22223738   0.23668422   0.25851483
   0.28347281   0.30055872   0.31066829   0.31430469   0.33153283
   0.34224506   0.34827198   0.35806401   0.37042873   0.38755243
   0.39940481   0.40916596   0.42844093   0.43269202   0.44847045
   0.45576988   0.46785834   0.48667382   0.50257704   0.52590497
   0.53371657   0.55718688   0.5693708    0.58070104   0.59855144
   0.62574827   0.63576643   0.687079     0.70350947   0.72372169
   0.72755951   0.73254126   0.78411382   0.79715211   0.82216172
   0.85861683   0.87707702   0.89744995   0.98238078]
nelec by numeric integration = 146.00000109745824
    CPU time for vxc     38.33 sec, wall time     15.79 sec
E1 = -4082.434784295481  Ecoul = 1886.333496139852  Exc = -124.42891319204082
Extra cycle  E= -835.811737850631  delta_E= 6.37e-12  |g|= 5.69e-06  |ddm|= 1.16e-05
    CPU time for scf_cycle    626.81 sec, wall time    255.64 sec
    CPU time for SCF    626.81 sec, wall time    255.64 sec
converged SCF energy = -835.811737850631
nelec by numeric integration = 146.00000109745824
    CPU time for vxc     38.36 sec, wall time     15.79 sec
 ** Mulliken pop  **
pop of  0 C 1s            1.99065
pop of  0 C 2s            1.08777
pop of  0 C 2px           0.99889
pop of  0 C 2py           0.97691
pop of  0 C 2pz           0.97372
pop of  1 C 1s            1.99063
pop of  1 C 2s            1.08439
pop of  1 C 2px           1.01058
pop of  1 C 2py           0.98086
pop of  1 C 2pz           0.92954
pop of  2 C 1s            1.99088
pop of  2 C 2s            1.14961
pop of  2 C 2px           1.00447
pop of  2 C 2py           0.93891
pop of  2 C 2pz           0.98995
pop of  3 C 1s            1.99202
pop of  3 C 2s            1.13894
pop of  3 C 2px           0.98413
pop of  3 C 2py           0.97734
pop of  3 C 2pz           0.99584
pop of  4 C 1s            1.99069
pop of  4 C 2s            1.08054
pop of  4 C 2px           1.03256
pop of  4 C 2py           0.97999
pop of  4 C 2pz           0.99480
pop of  5 C 1s            1.99068
pop of  5 C 2s            1.12756
pop of  5 C 2px           0.98774
pop of  5 C 2py           0.94823
pop of  5 C 2pz           0.99396
pop of  6 C 1s            1.99128
pop of  6 C 2s            1.16431
pop of  6 C 2px           0.96487
pop of  6 C 2py           0.99134
pop of  6 C 2pz           0.96619
pop of  7 C 1s            1.99145
pop of  7 C 2s            1.21794
pop of  7 C 2px           1.00193
pop of  7 C 2py           0.95291
pop of  7 C 2pz           0.91343
pop of  8 C 1s            1.99172
pop of  8 C 2s            1.14459
pop of  8 C 2px           0.95741
pop of  8 C 2py           0.94706
pop of  8 C 2pz           0.94490
pop of  9 C 1s            1.99007
pop of  9 C 2s            1.06400
pop of  9 C 2px           1.03418
pop of  9 C 2py           0.97997
pop of  9 C 2pz           0.98036
pop of  10 C 1s           1.99088
pop of  10 C 2s           1.16613
pop of  10 C 2px          1.00180
pop of  10 C 2py          0.95145
pop of  10 C 2pz          0.97655
pop of  11 C 1s           1.99099
pop of  11 C 2s           1.14752
pop of  11 C 2px          0.98559
pop of  11 C 2py          0.93592
pop of  11 C 2pz          0.97300
pop of  12 C 1s           1.99132
pop of  12 C 2s           1.19984
pop of  12 C 2px          0.93475
pop of  12 C 2py          0.91403
pop of  12 C 2pz          0.92866
pop of  13 C 1s           1.99041
pop of  13 C 2s           1.09686
pop of  13 C 2px          1.03765
pop of  13 C 2py          0.97267
pop of  13 C 2pz          0.93315
pop of  14 C 1s           1.99153
pop of  14 C 2s           1.18345
pop of  14 C 2px          1.05047
pop of  14 C 2py          0.91497
pop of  14 C 2pz          0.99804
pop of  15 C 1s           1.99124
pop of  15 C 2s           1.12917
pop of  15 C 2px          0.98123
pop of  15 C 2py          0.96044
pop of  15 C 2pz          0.95478
pop of  16 C 1s           1.99094
pop of  16 C 2s           1.16414
pop of  16 C 2px          0.95071
pop of  16 C 2py          0.94401
pop of  16 C 2pz          0.94055
pop of  17 C 1s           1.99041
pop of  17 C 2s           1.10914
pop of  17 C 2px          1.03388
pop of  17 C 2py          0.94450
pop of  17 C 2pz          0.95801
pop of  18 C 1s           1.99079
pop of  18 C 2s           1.16773
pop of  18 C 2px          1.01051
pop of  18 C 2py          0.93716
pop of  18 C 2pz          0.98184
pop of  19 C 1s           1.99152
pop of  19 C 2s           1.24970
pop of  19 C 2px          0.95146
pop of  19 C 2py          0.90723
pop of  19 C 2pz          0.93176
pop of  20 C 1s           1.99061
pop of  20 C 2s           1.12759
pop of  20 C 2px          0.99396
pop of  20 C 2py          1.01307
pop of  20 C 2pz          0.97594
pop of  21 C 1s           1.99093
pop of  21 C 2s           1.17906
pop of  21 C 2px          1.00705
pop of  21 C 2py          0.95360
pop of  21 C 2pz          0.94949
pop of  22 H 1s           0.93988
pop of  23 H 1s           0.88712
pop of  24 H 1s           0.93848
pop of  25 H 1s           0.92172
pop of  26 H 1s           0.89618
pop of  27 H 1s           0.92614
pop of  28 H 1s           0.90876
pop of  29 H 1s           0.93136
pop of  30 H 1s           0.89059
pop of  31 H 1s           0.98497
pop of  32 H 1s           0.91500
pop of  33 H 1s           0.92991
pop of  34 H 1s           0.91091
pop of  35 H 1s           0.91457
 ** Mulliken atomic charges  **
charge of    0C =     -0.02794
charge of    1C =      0.00399
charge of    2C =     -0.07381
charge of    3C =     -0.08827
charge of    4C =     -0.07858
charge of    5C =     -0.04817
charge of    6C =     -0.07799
charge of    7C =     -0.07766
charge of    8C =      0.01431
charge of    9C =     -0.04857
charge of   10C =     -0.08680
charge of   11C =     -0.03302
charge of   12C =      0.03140
charge of   13C =     -0.03073
charge of   14C =     -0.13845
charge of   15C =     -0.01686
charge of   16C =      0.00965
charge of   17C =     -0.03594
charge of   18C =     -0.08803
charge of   19C =     -0.03165
charge of   20C =     -0.10117
charge of   21C =     -0.08013
charge of   22H =      0.06012
charge of   23H =      0.11288
charge of   24H =      0.06152
charge of   25H =      0.07828
charge of   26H =      0.10382
charge of   27H =      0.07386
charge of   28H =      0.09124
charge of   29H =      0.06864
charge of   30H =      0.10941
charge of   31H =      0.01503
charge of   32H =      0.08500
charge of   33H =      0.07009
charge of   34H =      0.08909
charge of   35H =      0.08543
Dipole moment(X, Y, Z, Debye): -0.04944, -0.06594,  0.00105
nelec by numeric integration = 146.00000109745824
    CPU time for vxc     37.50 sec, wall time     15.67 sec
E1 = -4082.434784295481  Ecoul = 1886.3334961398518  Exc = -124.42891319204082
nelec by numeric integration = 146.00000109745824
    CPU time for vxc     38.30 sec, wall time     15.90 sec
E1 = -4082.434784295481  Ecoul = 1886.3334961398518  Exc = -124.42891319204082
