System: uname_result(system='Linux', node='cosmopc18', release='5.15.0-97-generic', version='#107-Ubuntu SMP Wed Feb 7 13:26:48 UTC 2024', machine='x86_64')  Threads 4
Python 3.11.8 (main, Feb 26 2024, 21:39:34) [GCC 11.2.0]
numpy 1.26.4  scipy 1.11.4
Date: Tue Apr  9 14:15:31 2024
PySCF version 2.3.0
PySCF path  /home/saade/miniconda3/envs/tutorial/lib/python3.11/site-packages/pyscf

[ENV] PYSCFAD_BACKEND torch
[CONFIG] conf_file None
[INPUT] verbose = 5
[INPUT] max_memory = 4000 
[INPUT] num. atoms = 36
[INPUT] num. electrons = 146
[INPUT] charge = 0
[INPUT] spin (= nelec alpha-beta = 2S) = 0
[INPUT] symmetry False subgroup None
[INPUT] Mole.unit = angstrom
[INPUT] Symbol           X                Y                Z      unit          X                Y                Z       unit  Magmom
[INPUT]  1 C      0.065045000000   3.879454000000   0.700986000000 AA    0.122917235772   7.331105572848   1.324671557154 Bohr   0.0
[INPUT]  2 C      0.074379000000   3.620121000000  -0.483159000000 AA    0.140555939419   6.841037227787  -0.913038184619 Bohr   0.0
[INPUT]  3 C     -0.046096000000   5.007224000000   1.580345000000 AA   -0.087108815438   9.462282004349   2.986419232326 Bohr   0.0
[INPUT]  4 C     -0.060792000000   2.482598000000   1.370871000000 AA   -0.114880230565   4.691430297393   2.590570742109 Bohr   0.0
[INPUT]  5 C      0.132397000000   5.236059000000  -1.455735000000 AA    0.250194069714   9.894717482064  -2.750940459944 Bohr   0.0
[INPUT]  6 C     -0.040459000000   2.622030000000  -1.514051000000 AA   -0.076456429274   4.954918590393  -2.861141728624 Bohr   0.0
[INPUT]  7 C      0.013652000000   6.048241000000  -0.568626000000 AA    0.025798541053  11.429519025366  -1.074547407307 Bohr   0.0
[INPUT]  8 C     -0.097171000000   6.179481000000   0.618004000000 AA   -0.183626577250  11.677526681953   1.167858303886 Bohr   0.0
[INPUT]  9 C      0.152736000000   1.278719000000   0.805505000000 AA    0.288629209362   2.416428700278   1.522183841968 Bohr   0.0
[INPUT] 10 C     -0.024311000000   1.287207000000  -0.735992000000 AA   -0.045941131814   2.432468695623  -1.390823309871 Bohr   0.0
[INPUT] 11 C      0.091534000000   0.007868000000   1.375143000000 AA    0.172974191086   0.014868365148   2.598643652113 Bohr   0.0
[INPUT] 12 C      0.057918000000   0.070388000000  -1.467318000000 AA    0.109449157683   0.133014042456  -2.772829157645 Bohr   0.0
[INPUT] 13 C      0.227734000000  -1.249754000000   0.759150000000 AA    0.430354889252  -2.361692783080   1.434585587464 Bohr   0.0
[INPUT] 14 C      0.062246000000  -1.277904000000  -0.726591000000 AA    0.117627892350  -2.414888573486  -1.373057994574 Bohr   0.0
[INPUT] 15 C     -0.004976000000  -2.542240000000   1.368918000000 AA   -0.009403277196  -4.804137342914   2.586880106987 Bohr   0.0
[INPUT] 16 C     -0.064450000000  -2.516202000000  -1.300736000000 AA   -0.121792848728  -4.754932654083  -2.458034800362 Bohr   0.0
[INPUT] 17 C     -0.248803000000  -3.567955000000   0.786146000000 AA   -0.470169528970  -6.742457774773   1.485600633922 Bohr   0.0
[INPUT] 18 C     -0.194758000000  -3.701633000000  -0.810721000000 AA   -0.368039280568  -6.995072583652  -1.532040653434 Bohr   0.0
[INPUT] 19 C      0.052541000000  -4.760394000000   1.302181000000 AA    0.099288100311  -8.995840905023   2.460765454612 Bohr   0.0
[INPUT] 20 C     -0.002878000000  -5.010469000000  -1.232466000000 AA   -0.005438631786  -9.468414165623  -2.329023197838 Bohr   0.0
[INPUT] 21 C     -0.151496000000  -6.058279000000   0.599827000000 AA   -0.286285948967 -11.448488096204   1.133508752119 Bohr   0.0
[INPUT] 22 C      0.041253000000  -6.070348000000  -0.609584000000 AA    0.077956871817 -11.471295200801  -1.151946809917 Bohr   0.0
[INPUT] 23 H     -0.173784000000   4.939613000000   2.324476000000 AA   -0.328404164831   9.334515731341   4.392623023124 Bohr   0.0
[INPUT] 24 H      0.059895000000   2.496556000000   2.428139000000 AA    0.113185146231   4.717807094640   4.588517702375 Bohr   0.0
[INPUT] 25 H      0.201839000000   4.948492000000  -2.729108000000 AA    0.381420431256   9.351294609601  -5.157266684360 Bohr   0.0
[INPUT] 26 H      0.075776000000   2.207781000000  -2.371466000000 AA    0.143195886815   4.172101433018  -4.481421253718 Bohr   0.0
[INPUT] 27 H      0.015826000000   7.015348000000  -1.245575000000 AA    0.029906805647  13.257086388515  -2.353795617605 Bohr   0.0
[INPUT] 28 H     -0.037849000000   6.999342000000   1.311502000000 AA   -0.071524244089  13.226839432165   2.478379591819 Bohr   0.0
[INPUT] 29 H      0.094879000000   0.045402000000   2.259563000000 AA    0.179295324973   0.085797345508   4.269955231201 Bohr   0.0
[INPUT] 30 H     -0.020623000000  -0.095516000000  -2.522462000000 AA   -0.038971821867  -0.180499080514  -4.766762339623 Bohr   0.0
[INPUT] 31 H      0.117000000000  -2.428928000000   2.310354000000 AA    0.221097956574  -4.590008696288   4.365936310793 Bohr   0.0
[INPUT] 32 H     -0.072211000000  -2.515227000000  -2.374629000000 AA   -0.136459013181  -4.753090171111  -4.487398457450 Bohr   0.0
[INPUT] 33 H     -0.104023000000  -4.909461000000   2.431063000000 AA   -0.196574980656  -9.277536709233   4.594043261564 Bohr   0.0
[INPUT] 34 H     -0.130888000000  -4.798357000000  -2.701588000000 AA   -0.247342472992  -9.067580577890  -5.105261421411 Bohr   0.0
[INPUT] 35 H     -0.006091000000  -7.055141000000   1.411717000000 AA   -0.011510321825 -13.332284260190   2.667758495393 Bohr   0.0
[INPUT] 36 H     -0.116352000000  -6.865678000000  -1.428477000000 AA   -0.219873414045 -12.974251079452  -2.699430305240 Bohr   0.0
[INPUT] ---------------- BASIS SET ---------------- 
[INPUT] l, kappa, [nprim/nctr], expnt,             c_1 c_2 ...
[INPUT] H
[INPUT] 0    0    [3    /1   ]  3.42525091        0.15432897
                                0.62391373        0.53532814
                                0.1688554         0.44463454
[INPUT] C
[INPUT] 0    0    [3    /1   ]  71.616837         0.15432897
                                13.045096         0.53532814
                                3.5305122         0.44463454
[INPUT] 0    0    [3    /1   ]  2.9412494         -0.09996723
                                0.6834831         0.39951283
                                0.2222899         0.70011547
[INPUT] 1    0    [3    /1   ]  2.9412494         0.15591627
                                0.6834831         0.60768372
                                0.2222899         0.39195739

nuclear repulsion = 1499.89646033942
number of shells = 80
number of NR pGTOs = 372
number of NR cGTOs = 124
basis = sto3g
ecp = {}
CPU time:     40082.56
atom C rad-grids = 99, ang-grids = [ 50  50  50  50  50  50  50  50  50  50  50  50  50  50  50  50  50  50
  50  50  50  50  50  50  50  50  50  50  50  50  50  86  86  86  86  86
  86  86  86  86  86  86  86 434 434 434 434 434 434 434 434 434 590 590
 590 590 590 590 590 590 590 590 590 590 590 590 590 590 590 590 590 590
 590 590 590 590 590 590 590 434 434 434 434 434 434 434 434 434 434 434
 434 434 434 434 434 434 434 434 434]
atom H rad-grids = 99, ang-grids = [ 50  50  50  50  50  50  50  50  50  50  50  50  50  50  50  50  50  50
  50  50  50  50  50  50  50  50  50  50  86  86  86  86  86  86  86 434
 434 434 434 434 434 434 434 590 590 590 590 590 590 590 590 590 590 590
 590 590 590 590 590 590 590 590 590 590 590 590 590 590 590 434 434 434
 434 434 434 434 434 434 434 434 434 434 434 434 434 434 434 434 434 434
 434 434 434 434 434 434 434 434 434]
tot_boxes 5270, boxes in each direction [ 8 29 15]
Padding 0 grids
tot grids = 1157832


******** <class 'pyscf.dft.rks.RKS'> ********
method = RKS
initial guess = minao
damping factor = 0
level_shift factor = 0
DIIS = <class 'pyscf.scf.diis.CDIIS'>
diis_start_cycle = 1
diis_space = 8
SCF conv_tol = 1e-10
SCF conv_tol_grad = None
SCF max_cycles = 50
direct_scf = True
direct_scf_tol = 1e-13
chkfile to save SCF result = /home/saade/mlelec/tutorials/tmpuxnghsnk
max_memory 4000 MB (current use 638 MB)
XC library pyscf.dft.libxc version 6.1.0
    S. Lehtola, C. Steigemann, M. J.T. Oliveira, and M. A.L. Marques.,  SoftwareX 7, 1–5 (2018)
XC functionals = b3lypg
    P. J. Stephens, F. J. Devlin, C. F. Chabalowski, and M. J. Frisch.,  J. Phys. Chem. 98, 11623 (1994)
radial grids: 
    Treutler-Ahlrichs [JCP 102, 346 (1995); DOI:10.1063/1.469408] (M4) radial grids
    
becke partition: Becke, JCP 88, 2547 (1988); DOI:10.1063/1.454033
pruning grids: <function nwchem_prune at 0x7f9db5616ca0>
grids dens level: 3
symmetrized grids: False
atomic radii adjust function: <function treutler_atomic_radii_adjust at 0x7f9db5617380>
User specified grid scheme (99, 590)
small_rho_cutoff = 1e-07
Set gradient conv threshold to 1e-05
Initial guess from minao.
nelec by numeric integration = 145.2708633586578
    CPU time for vxc     36.90 sec, wall time     15.51 sec
E1 = -4098.9497338762185  Ecoul = 1883.4725277424777  Exc = -126.29851539749305
init E= -841.879261191816
cond(S) = 23.056301441215687
    CPU time for initialize scf     46.46 sec, wall time     17.82 sec
  HOMO = -0.208374813392613  LUMO = -0.163948129660344
  mo_energy =
[-10.15130903 -10.14324822 -10.13942775 -10.13308276 -10.13249396
 -10.12825095 -10.12123868 -10.12098246 -10.11232133 -10.10994398
 -10.10572628 -10.10522599 -10.10347985 -10.0972388  -10.09708135
 -10.09614618 -10.09609469 -10.09341664 -10.09022108 -10.08894706
 -10.08667606 -10.08378276  -1.10781474  -1.08246319  -1.04725029
  -1.01771979  -0.97175738  -0.96045     -0.92551914  -0.894932
  -0.87823572  -0.83995658  -0.81050751  -0.78530502  -0.76938363
  -0.71403117  -0.71009313  -0.69284626  -0.66373486  -0.63623166
  -0.61315525  -0.58611758  -0.57837566  -0.56411299  -0.55792355
  -0.53566274  -0.52828764  -0.51905952  -0.51541365  -0.48689015
  -0.48387009  -0.4753354   -0.46587076  -0.46069932  -0.45164271
  -0.43638073  -0.42589348  -0.41240824  -0.40117836  -0.3979516
  -0.3868113   -0.3787851   -0.3717288   -0.36287272  -0.35812658
  -0.33882506  -0.31834088  -0.30685838  -0.28556154  -0.27460543
  -0.24213685  -0.22236216  -0.20837481  -0.16394813  -0.11610569
  -0.09168037  -0.06610411  -0.02652341   0.01823371   0.02713011
   0.04349462   0.04819971   0.07297123   0.09436264   0.10599291
   0.13105987   0.14829714   0.15433203   0.16148811   0.17510985
   0.18766627   0.1901589    0.21526475   0.25375619   0.25626039
   0.26901601   0.280301     0.30331957   0.32651082   0.33330067
   0.34793737   0.36981598   0.37565015   0.39382506   0.41273238
   0.41797986   0.44130525   0.46102505   0.47761351   0.49329927
   0.52694102   0.57858327   0.60283812   0.62221811   0.64618633
   0.67007097   0.68454762   0.6897273    0.77078186   0.79403608
   0.80177518   0.838766     0.91883753   0.94203126]
nelec by numeric integration = 145.9999964022639
    CPU time for vxc     38.09 sec, wall time     15.78 sec
E1 = -4114.08457004654  Ecoul = 1903.8490629926828  Exc = -124.91043793944004
cycle= 1 E= -835.249484653879  delta_E= 6.63  |g|= 0.323  |ddm|=  9.4
    CPU time for cycle= 1     38.34 sec, wall time     15.83 sec
  HOMO = -0.083296675163684  LUMO = -0.00428785733753517
  mo_energy =
[-1.00598913e+01 -1.00561939e+01 -1.00325185e+01 -1.00247081e+01
 -1.00211006e+01 -1.00048676e+01 -1.00015597e+01 -1.00003670e+01
 -9.99904360e+00 -9.99877126e+00 -9.99064879e+00 -9.98543964e+00
 -9.98441598e+00 -9.98129016e+00 -9.97858737e+00 -9.97542824e+00
 -9.96706501e+00 -9.93802563e+00 -9.92301828e+00 -9.92084971e+00
 -9.89308451e+00 -9.88744000e+00 -8.46752301e-01 -8.29072377e-01
 -7.99893604e-01 -7.79965260e-01 -7.49776844e-01 -7.25071100e-01
 -7.22411568e-01 -7.08659297e-01 -6.80272371e-01 -6.55334167e-01
 -6.46839953e-01 -6.28910042e-01 -6.00592019e-01 -5.57358709e-01
 -5.46739636e-01 -5.40293242e-01 -5.20593671e-01 -5.06052401e-01
 -4.93275131e-01 -4.86252916e-01 -4.59978998e-01 -4.46626519e-01
 -4.39076794e-01 -4.26690554e-01 -4.15870935e-01 -4.11664519e-01
 -3.92059215e-01 -3.81005496e-01 -3.60436859e-01 -3.55247670e-01
 -3.49871288e-01 -3.44090492e-01 -3.37759796e-01 -3.19667722e-01
 -3.09864568e-01 -3.00820191e-01 -2.94655377e-01 -2.92422735e-01
 -2.82301956e-01 -2.73237341e-01 -2.53767256e-01 -2.40527587e-01
 -2.37760710e-01 -2.22197798e-01 -2.06778962e-01 -1.90498457e-01
 -1.76342293e-01 -1.55873285e-01 -1.45869119e-01 -1.25093143e-01
 -8.32966752e-02 -4.28785734e-03  2.77342374e-02  6.62020047e-02
  1.06917715e-01  1.26323225e-01  1.56688005e-01  1.57809762e-01
  1.72307822e-01  1.88310847e-01  2.18233762e-01  2.35616823e-01
  2.55077142e-01  2.79094560e-01  2.88981681e-01  2.93550368e-01
  3.09182005e-01  3.20223599e-01  3.47577689e-01  3.51653573e-01
  3.75914837e-01  3.99509135e-01  4.12577156e-01  4.35381895e-01
  4.42094094e-01  4.58637744e-01  4.74889162e-01  4.91290306e-01
  5.00698150e-01  5.11243161e-01  5.38214588e-01  5.51906658e-01
  5.76307366e-01  5.82978759e-01  5.97958803e-01  6.25197274e-01
  6.59577922e-01  6.75237991e-01  7.27228898e-01  7.41248311e-01
  7.81647738e-01  7.97350526e-01  8.13544011e-01  8.23517610e-01
  8.53857788e-01  8.92533073e-01  9.47731601e-01  9.56816037e-01
  9.63893334e-01  1.05222325e+00  1.06359503e+00  1.07281519e+00]
nelec by numeric integration = 145.99999643854744
    CPU time for vxc     38.90 sec, wall time     16.36 sec
E1 = -4106.980468773274  Ecoul = 1896.717307461426  Exc = -124.76043329244881
cycle= 2 E= -835.127134264879  delta_E= 0.122  |g|= 0.634  |ddm|= 1.75
    CPU time for cycle= 2     39.43 sec, wall time     16.44 sec
  HOMO = -0.0957834777085118  LUMO = -0.0231723560903884
  mo_energy =
[-10.0373103  -10.0352371  -10.02383501 -10.02066765 -10.01704148
 -10.01515019 -10.00904214 -10.00823654 -10.00762076 -10.0065193
 -10.00538897 -10.00402898 -10.00270069 -10.00189151  -9.99930601
  -9.99747876  -9.995958    -9.99527374  -9.98006872  -9.97191445
  -9.96751496  -9.95533219  -0.85472482  -0.84156252  -0.81728303
  -0.7983219   -0.76472396  -0.75329917  -0.73364989  -0.71270674
  -0.70231683  -0.66852547  -0.64954847  -0.63691622  -0.62156544
  -0.57274559  -0.56839613  -0.56094369  -0.53450143  -0.51368391
  -0.50196825  -0.47827047  -0.46352843  -0.45828491  -0.45144424
  -0.43410883  -0.42364619  -0.41487032  -0.41278719  -0.39324557
  -0.37919748  -0.37297279  -0.36299754  -0.35393402  -0.3519939
  -0.3397827   -0.32166371  -0.3188727   -0.30715517  -0.29393001
  -0.29364387  -0.28385339  -0.27705173  -0.26547349  -0.25727969
  -0.24459605  -0.21534792  -0.20978829  -0.18729682  -0.17185997
  -0.13848629  -0.12938521  -0.09578348  -0.02317236   0.02339415
   0.05172342   0.07495407   0.12308347   0.15778212   0.16825797
   0.18957389   0.19666306   0.2037006    0.21978053   0.2494434
   0.27234742   0.29500278   0.29931835   0.31096477   0.31877189
   0.33458501   0.33705836   0.3603134    0.385318     0.40950715
   0.41411259   0.42747916   0.44254324   0.46957419   0.47574207
   0.49540458   0.50463216   0.51592247   0.52924416   0.5555458
   0.56368885   0.59424301   0.61092859   0.62183364   0.64211138
   0.67144766   0.7231395    0.75576048   0.7709386    0.79208089
   0.82771568   0.83397191   0.83582634   0.93006024   0.94524307
   0.94591644   0.99857012   1.04876658   1.09460634]
nelec by numeric integration = 145.99999639040936
    CPU time for vxc     39.32 sec, wall time     16.41 sec
E1 = -4110.093855238752  Ecoul = 1899.7028485523942  Exc = -124.77528434007732
cycle= 3 E= -835.269830687018  delta_E= -0.143  |g|= 0.26  |ddm|= 1.58
    CPU time for cycle= 3     39.68 sec, wall time     16.47 sec
  HOMO = -0.105814561753144  LUMO = -0.0344363340761632
  mo_energy =
[-10.03956861 -10.03548449 -10.03471864 -10.02889075 -10.02673022
 -10.02589127 -10.02401906 -10.01992511 -10.01819033 -10.01661388
 -10.0163914  -10.01614954 -10.01538498 -10.01530293 -10.01303443
 -10.01148576 -10.01097158 -10.01056429 -10.00471699 -10.00281723
 -10.00120401  -9.99162117  -0.86621539  -0.85234753  -0.82673982
  -0.80803418  -0.77389545  -0.76289183  -0.74229169  -0.71926791
  -0.70860531  -0.67918304  -0.653163    -0.65006284  -0.63403684
  -0.58105754  -0.57661172  -0.5640529   -0.54118086  -0.52268144
  -0.50820012  -0.48527787  -0.4737608   -0.46544832  -0.46015681
  -0.44135295  -0.4308418   -0.42159069  -0.42030108  -0.40554745
  -0.38560614  -0.38012626  -0.3708261   -0.36404659  -0.36190708
  -0.34403727  -0.32882935  -0.32663793  -0.31476508  -0.30459483
  -0.30085411  -0.29109057  -0.28228263  -0.27608591  -0.26424042
  -0.25259571  -0.22528455  -0.21712072  -0.1912666   -0.18272329
  -0.14904285  -0.14444676  -0.10581456  -0.03443633   0.01373548
   0.04193307   0.07007386   0.11332748   0.15473795   0.16110578
   0.17164865   0.18606327   0.19242144   0.2092252    0.24019202
   0.26407373   0.28461272   0.29279384   0.29948021   0.30359093
   0.32450512   0.32742622   0.35085998   0.38100757   0.40439602
   0.40801191   0.42139228   0.44018616   0.46103347   0.46981804
   0.48957412   0.50428011   0.51334002   0.52042798   0.54921196
   0.55695153   0.58503345   0.60245462   0.61662934   0.63318231
   0.67440861   0.71893193   0.74509573   0.76420406   0.77480167
   0.81447425   0.81630605   0.8331354    0.9163316    0.9318986
   0.93436693   0.98483161   1.04772176   1.07077508]
nelec by numeric integration = 145.99999638672915
    CPU time for vxc     38.64 sec, wall time     15.92 sec
E1 = -4110.473646105546  Ecoul = 1900.0822069355693  Exc = -124.79988693249884
cycle= 4 E= -835.294865763057  delta_E= -0.025  |g|= 0.0682  |ddm|= 0.514
    CPU time for cycle= 4     38.96 sec, wall time     15.97 sec
  HOMO = -0.107005798920681  LUMO = -0.0347371339417773
  mo_energy =
[-10.04098872 -10.03667424 -10.03482977 -10.03307803 -10.02787431
 -10.02518474 -10.02267024 -10.02138829 -10.0208059  -10.02073328
 -10.02004265 -10.01915737 -10.01643551 -10.01440236 -10.0134789
 -10.01269442 -10.0116665  -10.00786638 -10.0073722  -10.00492465
 -10.00445951  -9.99205446  -0.86399754  -0.85295058  -0.82672014
  -0.80855454  -0.77346017  -0.76427961  -0.74379979  -0.72343893
  -0.70946185  -0.67929753  -0.65299055  -0.64984457  -0.63585433
  -0.58221376  -0.57730467  -0.5669226   -0.53958107  -0.5239429
  -0.50928667  -0.48574613  -0.47404886  -0.46520238  -0.458279
  -0.44243476  -0.431179    -0.42465204  -0.4201279   -0.40381537
  -0.38652393  -0.38023512  -0.37118873  -0.36544291  -0.36322382
  -0.34588976  -0.32998056  -0.32637946  -0.31624211  -0.30499342
  -0.30386635  -0.29252726  -0.28188909  -0.27632683  -0.26584621
  -0.25483587  -0.22819588  -0.21836091  -0.19393458  -0.18423999
  -0.1493856   -0.14441072  -0.1070058   -0.03473713   0.01285209
   0.0412511    0.06762829   0.10959452   0.1521647    0.15957956
   0.17321648   0.1872437    0.19641776   0.20950974   0.23989751
   0.26462509   0.28401678   0.29142491   0.30046107   0.30479
   0.32257234   0.32378257   0.34964353   0.38275436   0.40175592
   0.40318598   0.42029441   0.44015822   0.46004876   0.46809216
   0.48624552   0.50285399   0.50984686   0.51965933   0.54961504
   0.55352664   0.58257854   0.59845221   0.61975263   0.62909235
   0.67132912   0.71780646   0.74267119   0.7686051    0.77454875
   0.81413047   0.81767778   0.83162596   0.91948283   0.93149887
   0.93344048   0.98927792   1.04432323   1.07319332]
nelec by numeric integration = 145.9999964020246
    CPU time for vxc     38.13 sec, wall time     15.73 sec
E1 = -4110.598837577828  Ecoul = 1900.2057589659862  Exc = -124.79918984526422
cycle= 5 E= -835.295808117688  delta_E= -0.000942  |g|= 0.0449  |ddm|= 0.168
    CPU time for cycle= 5     38.44 sec, wall time     15.79 sec
  HOMO = -0.106783293022101  LUMO = -0.0337012224583084
  mo_energy =
[-10.03980996 -10.03769134 -10.03236647 -10.03145018 -10.02483098
 -10.02403632 -10.02162288 -10.0195588  -10.01916294 -10.01861823
 -10.01698633 -10.01663842 -10.01616318 -10.01472325 -10.00981626
 -10.00943505 -10.0092244  -10.00881221 -10.00471741 -10.00463256
 -10.0035065  -10.00047592  -0.86350471  -0.85209208  -0.82580176
  -0.8077872   -0.7731441   -0.76303578  -0.74261171  -0.72127326
  -0.70904447  -0.67828643  -0.65302702  -0.64939387  -0.63394544
  -0.58079413  -0.57672799  -0.56565638  -0.53996615  -0.52250676
  -0.50865992  -0.48518268  -0.47316189  -0.46479434  -0.45875627
  -0.4415341   -0.43054266  -0.42292569  -0.41955883  -0.40411763
  -0.38585793  -0.37985774  -0.37045253  -0.36431341  -0.36216264
  -0.3453273   -0.32927265  -0.32676803  -0.31545683  -0.30376353
  -0.30276244  -0.29175431  -0.28166443  -0.27582279  -0.26494978
  -0.25371892  -0.2266361   -0.21783871  -0.19305942  -0.18356827
  -0.14892284  -0.14406848  -0.10678329  -0.03370122   0.01347223
   0.04203013   0.06838523   0.11158158   0.15353828   0.1606514
   0.17358374   0.18738269   0.19532353   0.21014819   0.24031023
   0.26477943   0.2847139    0.2925002    0.30065182   0.30532747
   0.32386887   0.32613188   0.35090268   0.38290974   0.40274472
   0.40557706   0.42103454   0.43939483   0.46094007   0.46887522
   0.487971     0.50363804   0.5110905    0.52006854   0.54997801
   0.55515836   0.58410701   0.60084983   0.61820891   0.63118549
   0.67168524   0.71823785   0.74456183   0.76684025   0.77600604
   0.8156296    0.8177936    0.83154535   0.9200859    0.93404562
   0.93468033   0.98859888   1.04620526   1.07302871]
nelec by numeric integration = 145.9999963998205
    CPU time for vxc     38.75 sec, wall time     15.99 sec
E1 = -4110.505214823528  Ecoul = 1900.10925039143  Exc = -124.79704727020268
cycle= 6 E= -835.296551362883  delta_E= -0.000743  |g|= 0.013  |ddm|= 0.0884
    CPU time for cycle= 6     39.25 sec, wall time     16.07 sec
  HOMO = -0.106542170936233  LUMO = -0.0331133285841884
  mo_energy =
[-10.03950359 -10.03614753 -10.03241094 -10.030566   -10.02582944
 -10.0225248  -10.02064807 -10.01953311 -10.01929178 -10.01869203
 -10.0177107  -10.01755313 -10.01737974 -10.01127417 -10.00918973
 -10.00886134 -10.00848882 -10.00815051 -10.00505941 -10.004256
 -10.00191977  -9.99899333  -0.86377627  -0.8515928   -0.82558129
  -0.80728674  -0.7726988   -0.76268259  -0.74226307  -0.72077283
  -0.70855945  -0.67828615  -0.65269234  -0.64869503  -0.633943
  -0.58067668  -0.57643607  -0.56512066  -0.53975822  -0.52247271
  -0.50828678  -0.48488128  -0.4729748   -0.46452782  -0.45867608
  -0.44134055  -0.43018838  -0.42253486  -0.41959549  -0.40348983
  -0.38545566  -0.37960852  -0.37035265  -0.36384381  -0.36187465
  -0.34479407  -0.328839    -0.32624958  -0.31509074  -0.30362752
  -0.30233469  -0.29174148  -0.2817717   -0.27546106  -0.26474204
  -0.25335887  -0.22630073  -0.21772677  -0.19259134  -0.18313049
  -0.14873252  -0.14360129  -0.10654217  -0.03311333   0.01395963
   0.04226089   0.06891334   0.11209013   0.15331385   0.16054285
   0.17405974   0.18754935   0.19605571   0.21017537   0.24074781
   0.26500036   0.28506324   0.29274605   0.3010083    0.30551299
   0.32407798   0.32640419   0.35098377   0.38245393   0.40349751
   0.40605852   0.42163613   0.4398654    0.46122613   0.46930972
   0.48846655   0.50418636   0.51150585   0.52064561   0.54992702
   0.55555639   0.58442301   0.60119437   0.61866306   0.6318104
   0.67250303   0.71881497   0.74503667   0.76716903   0.77605449
   0.81589449   0.81864232   0.83227783   0.91956016   0.93297949
   0.93482056   0.98857581   1.04607641   1.07410071]
nelec by numeric integration = 145.99999639783945
    CPU time for vxc     38.35 sec, wall time     16.01 sec
E1 = -4110.485831044486  Ecoul = 1900.0894436345684  Exc = -124.79667612089554
cycle= 7 E= -835.296603191395  delta_E= -5.18e-05  |g|= 0.00481  |ddm|= 0.0244
    CPU time for cycle= 7     38.92 sec, wall time     16.10 sec
  HOMO = -0.10651907735517  LUMO = -0.0330463474574862
  mo_energy =
[-10.03874417 -10.03572161 -10.03151613 -10.030921   -10.02573981
 -10.02251482 -10.02009804 -10.01961655 -10.01908853 -10.01843776
 -10.01814237 -10.01751747 -10.01726552 -10.01174676 -10.00977123
 -10.00915767 -10.00848294 -10.00839539 -10.00458412 -10.00398167
 -10.00209039  -9.9989453   -0.86377421  -0.85136166  -0.82564557
  -0.8072556   -0.77270929  -0.76279812  -0.74202284  -0.72071821
  -0.70849449  -0.67822868  -0.65269482  -0.64863095  -0.63382194
  -0.5806754   -0.57651418  -0.56513241  -0.53978057  -0.52229307
  -0.50811028  -0.48480397  -0.47292277  -0.4645155   -0.45860594
  -0.44118723  -0.43018203  -0.42251951  -0.4196717   -0.40356449
  -0.38554196  -0.3796654   -0.37036327  -0.36372765  -0.3618859
  -0.3447806   -0.32880905  -0.32625867  -0.315008    -0.3035585
  -0.30221438  -0.2916583   -0.28175661  -0.27553337  -0.26468228
  -0.25340128  -0.22618151  -0.21768734  -0.19260755  -0.18298656
  -0.14867606  -0.14350338  -0.10651908  -0.03304635   0.01409291
   0.04241353   0.06887417   0.11213468   0.1533767    0.16064565
   0.17421511   0.18745332   0.19592009   0.21026159   0.24075827
   0.26497806   0.28523187   0.29286376   0.30114933   0.30568643
   0.324162     0.32642134   0.35097682   0.38248278   0.40356321
   0.40605013   0.42149821   0.43994441   0.46143784   0.46931785
   0.48846213   0.5041298    0.51155277   0.52061496   0.54994616
   0.55567806   0.58455154   0.6012106    0.6185391    0.63171793
   0.67240184   0.71885258   0.74483542   0.76706811   0.77637269
   0.81580352   0.81868928   0.83213744   0.91958415   0.93310353
   0.93517169   0.9884824    1.04657018   1.07406378]
nelec by numeric integration = 145.99999639783223
    CPU time for vxc     39.77 sec, wall time     16.57 sec
E1 = -4110.484986876181  Ecoul = 1900.088485810838  Exc = -124.79657071874439
cycle= 8 E= -835.29661144467  delta_E= -8.25e-06  |g|= 0.0015  |ddm|= 0.00808
    CPU time for cycle= 8     40.14 sec, wall time     16.64 sec
  HOMO = -0.106548896183575  LUMO = -0.033057932112334
  mo_energy =
[-10.03892069 -10.03560209 -10.03182206 -10.0310649  -10.02568145
 -10.02256669 -10.02014046 -10.01965679 -10.01902315 -10.01815748
 -10.01806313 -10.01745747 -10.01718006 -10.01168205 -10.00972664
 -10.0091979  -10.00860114 -10.00836858 -10.00455191 -10.00421809
 -10.00212662  -9.99907799  -0.86372547  -0.8514364   -0.82562119
  -0.80728812  -0.77273378  -0.7627772   -0.742123    -0.7207598
  -0.70853102  -0.6782156   -0.65270399  -0.64867824  -0.63384562
  -0.58066959  -0.57649199  -0.56516942  -0.53979541  -0.52232753
  -0.50817087  -0.4848084   -0.47292966  -0.46451901  -0.45861489
  -0.44124896  -0.43018733  -0.42255431  -0.41964541  -0.40356944
  -0.38553713  -0.37964966  -0.37034478  -0.36377207  -0.36189405
  -0.34481029  -0.32882021  -0.32627614  -0.31503333  -0.303564
  -0.30225804  -0.29162683  -0.28174467  -0.27553861  -0.26468438
  -0.25338935  -0.22622956  -0.21765468  -0.19259913  -0.18303798
  -0.14867753  -0.14353851  -0.1065489   -0.03305793   0.01406272
   0.0423853    0.06887802   0.11209202   0.15346168   0.16068102
   0.17417479   0.18748564   0.19591612   0.21026703   0.24075242
   0.2649888    0.28518495   0.29283532   0.3011217    0.30564278
   0.32415045   0.32642527   0.3509974    0.38250851   0.40351344
   0.40603193   0.42150393   0.43988244   0.46138921   0.46928988
   0.48845313   0.50411943   0.51152136   0.52059886   0.54996886
   0.55564061   0.58450983   0.60119773   0.61852061   0.6317024
   0.67238341   0.71880702   0.74486006   0.76705686   0.77627341
   0.8158319    0.81865139   0.83213725   0.91964068   0.93323058
   0.93506606   0.98851116   1.04642063   1.07401906]
nelec by numeric integration = 145.99999639793455
    CPU time for vxc     38.92 sec, wall time     16.30 sec
E1 = -4110.487235273212  Ecoul = 1900.0907569612257  Exc = -124.79659400569817
cycle= 9 E= -835.296611978266  delta_E= -5.34e-07  |g|= 0.000913  |ddm|= 0.00266
    CPU time for cycle= 9     39.18 sec, wall time     16.35 sec
  HOMO = -0.106554370073733  LUMO = -0.0330609474284378
  mo_energy =
[-10.03893218 -10.03568498 -10.03178774 -10.03108098 -10.02572863
 -10.02260954 -10.02012756 -10.0196885  -10.01910458 -10.01825527
 -10.01805501 -10.01747284 -10.01724798 -10.01171852 -10.00968844
 -10.00920543 -10.00854889 -10.00845977 -10.00441861 -10.0041182
 -10.0022024   -9.99905485  -0.86375977  -0.85145003  -0.82564825
  -0.80730589  -0.77274168  -0.76279262  -0.74210631  -0.72075591
  -0.70854603  -0.6782218   -0.65273015  -0.64869222  -0.63383939
  -0.58067127  -0.5765165   -0.56517024  -0.53980138  -0.52232015
  -0.50818455  -0.48483042  -0.47293819  -0.46453081  -0.45862593
  -0.4412452   -0.43020244  -0.42254182  -0.41965809  -0.40357788
  -0.38554884  -0.37966842  -0.37036578  -0.36377306  -0.36188653
  -0.34482902  -0.32883529  -0.32628164  -0.31503126  -0.30358032
  -0.30225013  -0.29163521  -0.28175737  -0.2755351   -0.26470437
  -0.25339374  -0.22621199  -0.21766471  -0.19261931  -0.18303425
  -0.14868768  -0.14353833  -0.10655437  -0.03306095   0.01405476
   0.04238272   0.06885536   0.11211456   0.15344252   0.16066487
   0.17417756   0.18748332   0.19591407   0.21024744   0.24073486
   0.26497397   0.28517578   0.29283208   0.30111297   0.30565314
   0.32414415   0.32643213   0.35099109   0.38248777   0.4035129
   0.40604092   0.42152184   0.43988829   0.46138905   0.46929358
   0.48845237   0.50410163   0.51150553   0.52058612   0.54994332
   0.55564254   0.58451834   0.6012001    0.61850349   0.63172089
   0.6723409    0.71878744   0.74485663   0.76704104   0.77630108
   0.81581426   0.81862948   0.83209455   0.91960077   0.93317839
   0.93506514   0.98848759   1.04642614   1.07399468]
nelec by numeric integration = 145.99999639785838
    CPU time for vxc     38.62 sec, wall time     16.16 sec
E1 = -4110.488665823919  Ecoul = 1900.0922392980485  Exc = -124.79664609547244
cycle= 10 E= -835.296612281925  delta_E= -3.04e-07  |g|= 0.000344  |ddm|= 0.00148
    CPU time for cycle= 10     39.19 sec, wall time     16.24 sec
  HOMO = -0.106576049165373  LUMO = -0.0330817534364067
  mo_energy =
[-10.03892384 -10.03569429 -10.03181461 -10.03100234 -10.02571718
 -10.02263118 -10.02015643 -10.01972435 -10.019106   -10.01827292
 -10.0181243  -10.01753301 -10.01722559 -10.01166258 -10.00971594
 -10.00928761 -10.0085862  -10.0084919  -10.00451227 -10.00410176
 -10.00224531  -9.99912743  -0.86378311  -0.85144065  -0.82567126
  -0.80731302  -0.77276678  -0.76281974  -0.74211212  -0.72077194
  -0.70856668  -0.67823953  -0.65275524  -0.6486745   -0.63385423
  -0.58069288  -0.57654532  -0.5651943   -0.53982837  -0.52233028
  -0.50818195  -0.48483055  -0.47294804  -0.46454579  -0.45864434
  -0.44125816  -0.43021123  -0.42255851  -0.41967795  -0.40356132
  -0.38557674  -0.37969096  -0.37038068  -0.3637762   -0.3619025
  -0.34483988  -0.32884714  -0.32629789  -0.31504343  -0.30359078
  -0.30226285  -0.29164797  -0.2817677   -0.27556719  -0.26471999
  -0.2534177   -0.22623039  -0.21768727  -0.19264394  -0.18304574
  -0.14869923  -0.1435298   -0.10657605  -0.03308175   0.01404771
   0.04236641   0.06882933   0.11208837   0.15342581   0.16064812
   0.17418812   0.18744604   0.19595344   0.21024227   0.24073721
   0.26496563   0.28517892   0.29281871   0.3011204    0.30566004
   0.32412835   0.32640793   0.35096843   0.38248876   0.40348664
   0.406017     0.42148081   0.43986285   0.46138321   0.46926558
   0.48843402   0.50409132   0.51149118   0.52057675   0.54992845
   0.55562969   0.58449937   0.60117545   0.61846377   0.63168135
   0.67230638   0.71876229   0.74481836   0.76699744   0.77629679
   0.81579673   0.81865089   0.83205661   0.91958098   0.93317614
   0.93507021   0.98844847   1.04641952   1.07403142]
nelec by numeric integration = 145.99999639788737
    CPU time for vxc     38.02 sec, wall time     15.79 sec
E1 = -4110.490947061385  Ecoul = 1900.0945439340355  Exc = -124.7966695275037
cycle= 11 E= -835.296612315435  delta_E= -3.35e-08  |g|= 0.000186  |ddm|= 0.000827
    CPU time for cycle= 11     38.55 sec, wall time     15.88 sec
  HOMO = -0.10656199316066  LUMO = -0.0330657895543352
  mo_energy =
[-10.03891088 -10.03566418 -10.03179158 -10.03101256 -10.02572147
 -10.02261762 -10.02012647 -10.019702   -10.01909131 -10.01825614
 -10.01808467 -10.01750698 -10.01723665 -10.0116785  -10.00970225
 -10.0092549  -10.00857152 -10.00848329 -10.00445292 -10.00408796
 -10.00222544  -9.99909775  -0.86377144  -0.85143108  -0.82565844
  -0.80730279  -0.77275025  -0.76280504  -0.74210099  -0.72075786
  -0.70855172  -0.67822785  -0.65274231  -0.64867069  -0.63384111
  -0.58067992  -0.57653125  -0.56518038  -0.53981596  -0.52231764
  -0.50817413  -0.48482214  -0.47293772  -0.46453473  -0.45863462
  -0.44124652  -0.43020352  -0.4225454   -0.41966944  -0.40356287
  -0.38556236  -0.37967916  -0.37037178  -0.36376458  -0.36188957
  -0.34483063  -0.32883701  -0.32628726  -0.315032    -0.30358067
  -0.30225021  -0.29164102  -0.28176312  -0.27555023  -0.26470912
  -0.25340401  -0.226216    -0.21767654  -0.19263002  -0.18303188
  -0.14868942  -0.14352507  -0.10656199  -0.03306579   0.01405824
   0.04237977   0.06884409   0.11210484   0.15343147   0.16065654
   0.1741942    0.18746305   0.19594244   0.21025021   0.24074175
   0.2649721    0.28518717   0.2928292    0.30112675   0.30566628
   0.32414031   0.32642493   0.3509813    0.38248618   0.40350461
   0.40603322   0.42150225   0.43987581   0.46139571   0.46928177
   0.48844783   0.50410073   0.51150176   0.52058696   0.54993515
   0.55564268   0.58451413   0.60119108   0.61847968   0.63170427
   0.6723218    0.71877673   0.74483835   0.76701504   0.7763097
   0.81580975   0.8186562    0.83207292   0.91958939   0.93317983
   0.93508125   0.98846615   1.04643372   1.07403157]
nelec by numeric integration = 145.9999963978865
    CPU time for vxc     38.38 sec, wall time     15.91 sec
E1 = -4110.489490584965  Ecoul = 1900.093062767209  Exc = -124.79664485046828
cycle= 12 E= -835.296612328806  delta_E= -1.34e-08  |g|= 3.44e-05  |ddm|= 0.000327
    CPU time for cycle= 12     38.70 sec, wall time     15.97 sec
  HOMO = -0.106559519202912  LUMO = -0.0330637651977518
  mo_energy =
[-10.03891413 -10.03566958 -10.03178908 -10.03102141 -10.02571467
 -10.02261394 -10.02012461 -10.0197046  -10.01909455 -10.01825568
 -10.01808772 -10.01750285 -10.01722641 -10.01167209 -10.00969802
 -10.00924843 -10.00856124 -10.00847345 -10.00445408 -10.00408058
 -10.0022228   -9.9990969   -0.86376881  -0.85143207  -0.82565591
  -0.80730143  -0.77274902  -0.76280353  -0.742099    -0.72075683
  -0.70855047  -0.67822605  -0.65273964  -0.64867192  -0.63383935
  -0.5806779   -0.57652932  -0.56517824  -0.53981388  -0.52231692
  -0.5081746   -0.48482296  -0.47293667  -0.46453344  -0.45863249
  -0.4412447   -0.43020157  -0.42254472  -0.41966754  -0.40356195
  -0.38556073  -0.37967761  -0.37037029  -0.36376482  -0.36188905
  -0.34482968  -0.32883532  -0.32628614  -0.31503121  -0.30357913
  -0.30224879  -0.29163958  -0.28176114  -0.27554848  -0.26470719
  -0.25340253  -0.22621333  -0.21767513  -0.1926289   -0.18303069
  -0.14868767  -0.14352388  -0.10655952  -0.03306377   0.01405919
   0.04238147   0.06884574   0.11210767   0.15343332   0.16065897
   0.17419595   0.18746489   0.19594171   0.2102513    0.24074245
   0.26497305   0.28518737   0.29283147   0.30112628   0.305667
   0.3241422    0.32642606   0.35098317   0.38248825   0.4035063
   0.40603406   0.4215024    0.43987661   0.46139605   0.46928299
   0.48844841   0.50410035   0.5115028    0.52058678   0.54993793
   0.55564273   0.58451573   0.60119322   0.61848217   0.63170552
   0.67232473   0.71878072   0.74483969   0.76701797   0.77631256
   0.81581086   0.81865429   0.83207668   0.91959406   0.93318251
   0.93508133   0.98846954   1.04643416   1.07402829]
nelec by numeric integration = 145.99999639788228
    CPU time for vxc     38.03 sec, wall time     15.78 sec
E1 = -4110.489400520741  Ecoul = 1900.0929692147029  Exc = -124.79664136241712
cycle= 13 E= -835.296612329037  delta_E= -2.31e-10  |g|= 2.26e-05  |ddm|= 7.6e-05
    CPU time for cycle= 13     38.57 sec, wall time     15.86 sec
  HOMO = -0.106561473434146  LUMO = -0.0330654062348768
  mo_energy =
[-10.03891267 -10.03566825 -10.03179009 -10.03102084 -10.02571754
 -10.02261639 -10.0201275  -10.01970426 -10.01909376 -10.01825594
 -10.01808741 -10.01750554 -10.01723003 -10.01167643 -10.0096987
 -10.00925318 -10.00856665 -10.00847813 -10.00445549 -10.00408617
 -10.00222347  -9.99909912  -0.86377032  -0.85143265  -0.8256576
  -0.80730286  -0.77275046  -0.76280448  -0.74210066  -0.72075776
  -0.7085518   -0.67822726  -0.65274153  -0.64867234  -0.63384066
  -0.5806792   -0.57653071  -0.56517976  -0.53981529  -0.52231782
  -0.5081751   -0.48482315  -0.47293778  -0.4645346   -0.45863399
  -0.44124617  -0.43020301  -0.42254558  -0.41966851  -0.40356319
  -0.38556193  -0.37967872  -0.37037127  -0.36376554  -0.36188988
  -0.34483067  -0.3288367   -0.32628735  -0.3150321   -0.30358034
  -0.30224986  -0.29163994  -0.28176222  -0.2755498   -0.26470845
  -0.25340347  -0.22621506  -0.21767553  -0.19262967  -0.18303202
  -0.14868888  -0.14352528  -0.10656147  -0.03306541   0.01405818
   0.04238008   0.06884457   0.11210586   0.15343334   0.16065813
   0.17419401   0.18746377   0.19594116   0.21025021   0.24074149
   0.26497215   0.28518652   0.29282997   0.30112569   0.30566585
   0.32414087   0.3264252    0.35098201   0.3824873    0.40350478
   0.40603337   0.42150161   0.43987569   0.46139525   0.46928194
   0.48844788   0.50410001   0.51150193   0.52058611   0.54993648
   0.55564251   0.58451466   0.60119189   0.61848017   0.63170422
   0.67232274   0.71877793   0.74483854   0.76701574   0.77631025
   0.81581011   0.81865384   0.83207407   0.91959171   0.93318156
   0.93508034   0.98846738   1.04643344   1.07402811]
nelec by numeric integration = 145.99999639788257
    CPU time for vxc     37.84 sec, wall time     15.74 sec
E1 = -4110.489504860935  Ecoul = 1900.0930771771477  Exc = -124.79664498483496
cycle= 14 E= -835.296612329204  delta_E= -1.67e-10  |g|= 8.87e-06  |ddm|= 4.07e-05
    CPU time for cycle= 14     38.16 sec, wall time     15.79 sec
  HOMO = -0.106561505929263  LUMO = -0.0330654411701467
  mo_energy =
[-10.03891318 -10.03566784 -10.03179114 -10.03102083 -10.02571795
 -10.02261655 -10.02012735 -10.01970416 -10.01909421 -10.01825627
 -10.01808792 -10.0175053  -10.01723068 -10.01167566 -10.0097005
 -10.0092524  -10.00856668 -10.0084784  -10.0044563  -10.00408531
 -10.00222478  -9.99909764  -0.8637704   -0.85143274  -0.82565773
  -0.80730294  -0.77275047  -0.76280481  -0.74210077  -0.72075813
  -0.70855187  -0.67822736  -0.6527415   -0.64867235  -0.6338409
  -0.58067943  -0.57653083  -0.56517995  -0.53981526  -0.52231798
  -0.50817521  -0.48482326  -0.47293787  -0.46453463  -0.45863385
  -0.44124627  -0.43020305  -0.42254584  -0.41966867  -0.403563
  -0.38556206  -0.37967884  -0.37037141  -0.36376568  -0.36189002
  -0.3448308   -0.32883676  -0.32628726  -0.31503219  -0.30358045
  -0.30225011  -0.2916401   -0.28176226  -0.27554993  -0.26470861
  -0.25340369  -0.22621524  -0.21767571  -0.19262991  -0.18303207
  -0.14868894  -0.14352523  -0.10656151  -0.03306544   0.01405808
   0.04238001   0.06884437   0.11210559   0.15343306   0.16065793
   0.17419417   0.18746371   0.19594155   0.21025016   0.24074147
   0.26497214   0.28518646   0.29282985   0.30112573   0.30566593
   0.32414068   0.32642484   0.35098181   0.38248729   0.40350465
   0.40603294   0.42150159   0.43987575   0.46139515   0.46928176
   0.48844753   0.50409984   0.51150165   0.52058604   0.5499364
   0.55564214   0.58451439   0.6011915    0.6184804    0.63170391
   0.6723226    0.71877796   0.74483815   0.76701603   0.77631026
   0.81580972   0.81865392   0.83207408   0.91959167   0.93318122
   0.93508021   0.98846745   1.04643308   1.07402828]
nelec by numeric integration = 145.99999639788308
    CPU time for vxc     37.63 sec, wall time     15.62 sec
E1 = -4110.489524067228  Ecoul = 1900.093096619091  Exc = -124.79664522050771
cycle= 15 E= -835.296612329226  delta_E= -2.18e-11  |g|= 3.77e-06  |ddm|= 1.74e-05
    CPU time for cycle= 15     38.06 sec, wall time     15.69 sec
  HOMO = -0.106561525334954  LUMO = -0.0330654197683608
  mo_energy =
[-10.03891306 -10.03566871 -10.03179046 -10.03102028 -10.02571726
 -10.02261669 -10.0201264  -10.01970515 -10.01909407 -10.01825511
 -10.01808771 -10.01750593 -10.01722978 -10.01167644 -10.00969959
 -10.00925393 -10.00856696 -10.00847848 -10.00445449 -10.00408455
 -10.00222469  -9.9990999   -0.86377048  -0.85143259  -0.82565776
  -0.80730293  -0.77275061  -0.76280483  -0.74210055  -0.72075785
  -0.70855199  -0.67822723  -0.65274172  -0.64867229  -0.63384053
  -0.58067926  -0.57653096  -0.56517991  -0.53981555  -0.52231768
  -0.50817515  -0.48482324  -0.47293776  -0.46453469  -0.45863405
  -0.44124614  -0.43020305  -0.42254557  -0.4196687   -0.40356304
  -0.38556219  -0.37967896  -0.37037141  -0.3637655   -0.36188985
  -0.34483086  -0.32883675  -0.32628745  -0.31503211  -0.30358037
  -0.30224988  -0.29164003  -0.28176225  -0.27555004  -0.26470856
  -0.25340364  -0.22621497  -0.21767578  -0.19263     -0.18303196
  -0.1486889   -0.1435251   -0.10656153  -0.03306542   0.01405809
   0.04238009   0.06884427   0.11210588   0.15343323   0.16065805
   0.17419434   0.18746349   0.19594145   0.21025027   0.24074149
   0.26497209   0.28518658   0.29282999   0.30112577   0.30566613
   0.32414086   0.32642518   0.35098196   0.38248736   0.40350461
   0.40603324   0.42150146   0.43987544   0.46139527   0.46928174
   0.48844767   0.50409979   0.51150173   0.52058596   0.54993636
   0.55564232   0.58451456   0.60119182   0.61847976   0.63170412
   0.67232226   0.71877783   0.74483823   0.76701534   0.77631068
   0.81580981   0.81865389   0.8320737    0.91959167   0.93318185
   0.93508051   0.98846703   1.04643346   1.07402825]
nelec by numeric integration = 145.99999639788297
    CPU time for vxc     37.91 sec, wall time     15.82 sec
E1 = -4110.489523046952  Ecoul = 1900.0930954014284  Exc = -124.7966450230848
Extra cycle  E= -835.29661232919  delta_E= 3.59e-11  |g|= 9.79e-06  |ddm|= 2.47e-05
    CPU time for scf_cycle    668.37 sec, wall time    274.79 sec
    CPU time for SCF    668.37 sec, wall time    274.79 sec
converged SCF energy = -835.29661232919
nelec by numeric integration = 145.99999639788297
    CPU time for vxc     37.75 sec, wall time     15.62 sec
 ** Mulliken pop  **
pop of  0 C 1s            1.99078
pop of  0 C 2s            1.07918
pop of  0 C 2px           1.01038
pop of  0 C 2py           0.93723
pop of  0 C 2pz           0.99278
pop of  1 C 1s            1.99164
pop of  1 C 2s            1.09451
pop of  1 C 2px           0.97760
pop of  1 C 2py           0.95943
pop of  1 C 2pz           0.96782
pop of  2 C 1s            1.99167
pop of  2 C 2s            1.09628
pop of  2 C 2px           1.03834
pop of  2 C 2py           0.97985
pop of  2 C 2pz           1.04951
pop of  3 C 1s            1.99113
pop of  3 C 2s            1.18761
pop of  3 C 2px           0.95900
pop of  3 C 2py           0.94314
pop of  3 C 2pz           0.98592
pop of  4 C 1s            1.99240
pop of  4 C 2s            1.20200
pop of  4 C 2px           0.90514
pop of  4 C 2py           0.97178
pop of  4 C 2pz           0.94334
pop of  5 C 1s            1.99104
pop of  5 C 2s            1.15361
pop of  5 C 2px           1.04394
pop of  5 C 2py           0.93144
pop of  5 C 2pz           1.00077
pop of  6 C 1s            1.99097
pop of  6 C 2s            0.99392
pop of  6 C 2px           1.06239
pop of  6 C 2py           1.04333
pop of  6 C 2pz           1.03830
pop of  7 C 1s            1.99099
pop of  7 C 2s            1.09309
pop of  7 C 2px           0.98078
pop of  7 C 2py           1.00457
pop of  7 C 2pz           0.98700
pop of  8 C 1s            1.99069
pop of  8 C 2s            1.12872
pop of  8 C 2px           0.99921
pop of  8 C 2py           0.96076
pop of  8 C 2pz           0.93207
pop of  9 C 1s            1.99132
pop of  9 C 2s            1.21060
pop of  9 C 2px           0.93707
pop of  9 C 2py           0.92934
pop of  9 C 2pz           0.92458
pop of  10 C 1s           1.99065
pop of  10 C 2s           1.11030
pop of  10 C 2px          1.02686
pop of  10 C 2py          0.95930
pop of  10 C 2pz          1.05465
pop of  11 C 1s           1.99108
pop of  11 C 2s           1.19276
pop of  11 C 2px          1.00493
pop of  11 C 2py          0.92764
pop of  11 C 2pz          0.97242
pop of  12 C 1s           1.99074
pop of  12 C 2s           1.15212
pop of  12 C 2px          0.96915
pop of  12 C 2py          0.93281
pop of  12 C 2pz          0.93543
pop of  13 C 1s           1.99089
pop of  13 C 2s           1.16337
pop of  13 C 2px          0.96543
pop of  13 C 2py          0.93397
pop of  13 C 2pz          0.93946
pop of  14 C 1s           1.99075
pop of  14 C 2s           1.06413
pop of  14 C 2px          1.01579
pop of  14 C 2py          0.99542
pop of  14 C 2pz          1.05890
pop of  15 C 1s           1.99059
pop of  15 C 2s           1.09736
pop of  15 C 2px          1.00832
pop of  15 C 2py          0.98242
pop of  15 C 2pz          1.01666
pop of  16 C 1s           1.99079
pop of  16 C 2s           1.08171
pop of  16 C 2px          0.97946
pop of  16 C 2py          1.00053
pop of  16 C 2pz          0.98029
pop of  17 C 1s           1.99087
pop of  17 C 2s           1.10538
pop of  17 C 2px          0.99564
pop of  17 C 2py          0.97739
pop of  17 C 2pz          0.92130
pop of  18 C 1s           1.99114
pop of  18 C 2s           1.18401
pop of  18 C 2px          0.96711
pop of  18 C 2py          0.92593
pop of  18 C 2pz          0.97473
pop of  19 C 1s           1.99158
pop of  19 C 2s           1.11950
pop of  19 C 2px          0.99156
pop of  19 C 2py          0.96000
pop of  19 C 2pz          0.93708
pop of  20 C 1s           1.99132
pop of  20 C 2s           1.16238
pop of  20 C 2px          0.97426
pop of  20 C 2py          0.95376
pop of  20 C 2pz          0.96097
pop of  21 C 1s           1.99061
pop of  21 C 2s           1.06064
pop of  21 C 2px          1.02320
pop of  21 C 2py          1.03891
pop of  21 C 2pz          1.02505
pop of  22 H 1s           0.87356
pop of  23 H 1s           0.92493
pop of  24 H 1s           0.90731
pop of  25 H 1s           0.87201
pop of  26 H 1s           0.92038
pop of  27 H 1s           0.89505
pop of  28 H 1s           0.88687
pop of  29 H 1s           0.91944
pop of  30 H 1s           0.88879
pop of  31 H 1s           0.92359
pop of  32 H 1s           0.93898
pop of  33 H 1s           0.99124
pop of  34 H 1s           0.94391
pop of  35 H 1s           0.89363
 ** Mulliken atomic charges  **
charge of    0C =     -0.01034
charge of    1C =      0.00900
charge of    2C =     -0.15566
charge of    3C =     -0.06678
charge of    4C =     -0.01467
charge of    5C =     -0.12080
charge of    6C =     -0.12891
charge of    7C =     -0.05642
charge of    8C =     -0.01145
charge of    9C =      0.00709
charge of   10C =     -0.14176
charge of   11C =     -0.08883
charge of   12C =      0.01976
charge of   13C =      0.00688
charge of   14C =     -0.12500
charge of   15C =     -0.09535
charge of   16C =     -0.03278
charge of   17C =      0.00943
charge of   18C =     -0.04291
charge of   19C =      0.00028
charge of   20C =     -0.04268
charge of   21C =     -0.13840
charge of   22H =      0.12644
charge of   23H =      0.07507
charge of   24H =      0.09269
charge of   25H =      0.12799
charge of   26H =      0.07962
charge of   27H =      0.10495
charge of   28H =      0.11313
charge of   29H =      0.08056
charge of   30H =      0.11121
charge of   31H =      0.07641
charge of   32H =      0.06102
charge of   33H =      0.00876
charge of   34H =      0.05609
charge of   35H =      0.10637
Dipole moment(X, Y, Z, Debye):  0.10950,  1.34138, -0.98906
nelec by numeric integration = 145.99999639788297
    CPU time for vxc     37.92 sec, wall time     15.81 sec
E1 = -4110.489523046952  Ecoul = 1900.0930954014284  Exc = -124.7966450230848
nelec by numeric integration = 145.99999639788297
    CPU time for vxc     38.76 sec, wall time     15.97 sec
E1 = -4110.489523046952  Ecoul = 1900.093095401429  Exc = -124.7966450230848
