System: uname_result(system='Linux', node='cosmopc18', release='5.15.0-97-generic', version='#107-Ubuntu SMP Wed Feb 7 13:26:48 UTC 2024', machine='x86_64')  Threads 4
Python 3.11.8 (main, Feb 26 2024, 21:39:34) [GCC 11.2.0]
numpy 1.26.4  scipy 1.11.4
Date: Tue Apr  9 15:28:27 2024
PySCF version 2.3.0
PySCF path  /home/saade/miniconda3/envs/tutorial/lib/python3.11/site-packages/pyscf

[ENV] PYSCFAD_BACKEND torch
[CONFIG] conf_file None
[INPUT] verbose = 5
[INPUT] max_memory = 4000 
[INPUT] num. atoms = 36
[INPUT] num. electrons = 146
[INPUT] charge = 0
[INPUT] spin (= nelec alpha-beta = 2S) = 0
[INPUT] symmetry False subgroup None
[INPUT] Mole.unit = angstrom
[INPUT] Symbol           X                Y                Z      unit          X                Y                Z       unit  Magmom
[INPUT]  1 C     -0.037405000000   3.546376000000   0.650076000000 AA   -0.070685205689   6.701679374731   1.228465600153 Bohr   0.0
[INPUT]  2 C      0.120331000000   3.676439000000  -0.781608000000 AA    0.227392634295   6.947462823670  -1.477025056769 Bohr   0.0
[INPUT]  3 C     -0.096422000000   4.904856000000   1.446229000000 AA   -0.182211172383   9.268834520430   2.732976723404 Bohr   0.0
[INPUT]  4 C      0.021260000000   2.629122000000   1.265992000000 AA    0.040175577408   4.968320528069   2.392378155890 Bohr   0.0
[INPUT]  5 C      0.014147000000   4.988395000000  -1.271249000000 AA    0.026733955484   9.426700351150  -2.402312446127 Bohr   0.0
[INPUT]  6 C      0.024088000000   2.528394000000  -1.388126000000 AA    0.045519722889   4.777972194994  -2.623177966388 Bohr   0.0
[INPUT]  7 C     -0.191303000000   6.046048000000  -0.545410000000 AA   -0.361510276808  11.425374855974  -1.030675525599 Bohr   0.0
[INPUT]  8 C     -0.035813000000   6.117106000000   0.719416000000 AA   -0.067676761699  11.559655014934   1.359499209630 Bohr   0.0
[INPUT]  9 C      0.190996000000   1.306792000000   0.718823000000 AA    0.360930130887   2.469478981773   1.358378602038 Bohr   0.0
[INPUT] 10 C     -0.073642000000   1.219600000000  -0.568805000000 AA   -0.139163211265   2.304709981520  -1.074885668283 Bohr   0.0
[INPUT] 11 C      0.104474000000  -0.013552000000   1.224191000000 AA    0.197427247138  -0.025609568440   2.313385714157 Bohr   0.0
[INPUT] 12 C      0.080630000000   0.097690000000  -1.543940000000 AA    0.152368617424   0.184607345109  -2.917623752761 Bohr   0.0
[INPUT] 13 C     -0.002391000000  -1.162809000000   0.697491000000 AA   -0.004518335164  -2.197390545179   1.318066964349 Bohr   0.0
[INPUT] 14 C      0.016145000000  -1.410115000000  -0.590067000000 AA    0.030509628281  -2.664731154141  -1.115065025144 Bohr   0.0
[INPUT] 15 C      0.014056000000  -2.411526000000   1.402791000000 AA    0.026561990407  -4.557123682268   2.650890800005 Bohr   0.0
[INPUT] 16 C     -0.061270000000  -2.492972000000  -1.441459000000 AA   -0.115783519652  -4.711034316209  -2.723962729789 Bohr   0.0
[INPUT] 17 C      0.072839000000  -3.560057000000   0.781012000000 AA    0.137645761187  -6.727532717841   1.475898779999 Bohr   0.0
[INPUT] 18 C      0.090828000000  -3.616724000000  -0.780615000000 AA    0.171640044442  -6.834617828141  -1.475148558727 Bohr   0.0
[INPUT] 19 C     -0.003253000000  -5.086668000000   1.508844000000 AA   -0.006147279083  -9.612409406589   2.851301924693 Bohr   0.0
[INPUT] 20 C      0.002065000000  -4.821605000000  -1.265906000000 AA    0.003902284447  -9.111512930834  -2.392215639444 Bohr   0.0
[INPUT] 21 C      0.078002000000  -6.120537000000   0.843963000000 AA    0.147402417168 -11.566138665267   1.594858929266 Bohr   0.0
[INPUT] 22 C      0.091945000000  -6.133654000000  -0.688808000000 AA    0.173750868523 -11.590926202843  -1.301658472409 Bohr   0.0
[INPUT] 23 H     -0.037252000000   4.946274000000   2.396497000000 AA   -0.070396077592   9.347103197057   4.528722988342 Bohr   0.0
[INPUT] 24 H      0.152052000000   2.386353000000   2.379501000000 AA    0.287336636692   4.509553606534   4.496605203129 Bohr   0.0
[INPUT] 25 H     -0.008117000000   4.908245000000  -2.450149000000 AA   -0.015338906953   9.275238802266  -4.630110574377 Bohr   0.0
[INPUT] 26 H      0.005321000000   2.444613000000  -2.583493000000 AA    0.010055232709   4.619649050551  -4.882094214731 Bohr   0.0
[INPUT] 27 H     -0.180398000000   6.719193000000  -1.223574000000 AA   -0.340902813419  12.697434548095  -2.312219753139 Bohr   0.0
[INPUT] 28 H      0.080995000000   7.126851000000   1.088105000000 AA    0.153058367459  13.467796520583   2.056220444770 Bohr   0.0
[INPUT] 29 H     -0.040613000000   0.141542000000   2.507215000000 AA   -0.076747447097   0.267475615123   4.737949685401 Bohr   0.0
[INPUT] 30 H     -0.085022000000   0.057129000000  -2.578364000000 AA   -0.160668294563   0.107958163770  -4.872401809438 Bohr   0.0
[INPUT] 31 H     -0.044653000000  -2.421878000000   2.508995000000 AA   -0.084381940640  -4.576686127109   4.741313397903 Bohr   0.0
[INPUT] 32 H      0.117683000000  -2.373411000000  -2.355796000000 AA    0.222388639517  -4.485096771030  -4.451809245346 Bohr   0.0
[INPUT] 33 H      0.053706000000  -4.791872000000   2.493929000000 AA    0.101489631246  -9.055325703972   4.712842784110 Bohr   0.0
[INPUT] 34 H      0.114018000000  -5.058511000000  -2.365834000000 AA    0.215462793271  -9.559200388100  -4.470778316184 Bohr   0.0
[INPUT] 35 H     -0.006036000000  -7.073029000000   1.253435000000 AA   -0.011406386888 -13.366087681106   2.368648864944 Bohr   0.0
[INPUT] 36 H      0.045321000000  -7.049041000000  -1.085134000000 AA    0.085644277691 -13.320756930830  -2.050606068454 Bohr   0.0
[INPUT] ---------------- BASIS SET ---------------- 
[INPUT] l, kappa, [nprim/nctr], expnt,             c_1 c_2 ...
[INPUT] H
[INPUT] 0    0    [3    /1   ]  3.42525091        0.15432897
                                0.62391373        0.53532814
                                0.1688554         0.44463454
[INPUT] C
[INPUT] 0    0    [3    /1   ]  71.616837         0.15432897
                                13.045096         0.53532814
                                3.5305122         0.44463454
[INPUT] 0    0    [3    /1   ]  2.9412494         -0.09996723
                                0.6834831         0.39951283
                                0.2222899         0.70011547
[INPUT] 1    0    [3    /1   ]  2.9412494         0.15591627
                                0.6834831         0.60768372
                                0.2222899         0.39195739

nuclear repulsion = 1507.63580188977
number of shells = 80
number of NR pGTOs = 372
number of NR cGTOs = 124
basis = sto3g
ecp = {}
CPU time:     50700.73
atom C rad-grids = 99, ang-grids = [ 50  50  50  50  50  50  50  50  50  50  50  50  50  50  50  50  50  50
  50  50  50  50  50  50  50  50  50  50  50  50  50  86  86  86  86  86
  86  86  86  86  86  86  86 434 434 434 434 434 434 434 434 434 590 590
 590 590 590 590 590 590 590 590 590 590 590 590 590 590 590 590 590 590
 590 590 590 590 590 590 590 434 434 434 434 434 434 434 434 434 434 434
 434 434 434 434 434 434 434 434 434]
atom H rad-grids = 99, ang-grids = [ 50  50  50  50  50  50  50  50  50  50  50  50  50  50  50  50  50  50
  50  50  50  50  50  50  50  50  50  50  86  86  86  86  86  86  86 434
 434 434 434 434 434 434 434 590 590 590 590 590 590 590 590 590 590 590
 590 590 590 590 590 590 590 590 590 590 590 590 590 590 590 434 434 434
 434 434 434 434 434 434 434 434 434 434 434 434 434 434 434 434 434 434
 434 434 434 434 434 434 434 434 434]
tot_boxes 5270, boxes in each direction [ 8 29 15]
Padding 0 grids
tot grids = 1157832


******** <class 'pyscf.dft.rks.RKS'> ********
method = RKS
initial guess = minao
damping factor = 0
level_shift factor = 0
DIIS = <class 'pyscf.scf.diis.CDIIS'>
diis_start_cycle = 1
diis_space = 8
SCF conv_tol = 1e-10
SCF conv_tol_grad = None
SCF max_cycles = 50
direct_scf = True
direct_scf_tol = 1e-13
chkfile to save SCF result = /home/saade/mlelec/tutorials/tmp9q1huoiu
max_memory 4000 MB (current use 690 MB)
XC library pyscf.dft.libxc version 6.1.0
    S. Lehtola, C. Steigemann, M. J.T. Oliveira, and M. A.L. Marques.,  SoftwareX 7, 1–5 (2018)
XC functionals = b3lypg
    P. J. Stephens, F. J. Devlin, C. F. Chabalowski, and M. J. Frisch.,  J. Phys. Chem. 98, 11623 (1994)
radial grids: 
    Treutler-Ahlrichs [JCP 102, 346 (1995); DOI:10.1063/1.469408] (M4) radial grids
    
becke partition: Becke, JCP 88, 2547 (1988); DOI:10.1063/1.454033
pruning grids: <function nwchem_prune at 0x7f9db5616ca0>
grids dens level: 3
symmetrized grids: False
atomic radii adjust function: <function treutler_atomic_radii_adjust at 0x7f9db5617380>
User specified grid scheme (99, 590)
small_rho_cutoff = 1e-07
Set gradient conv threshold to 1e-05
Initial guess from minao.
nelec by numeric integration = 145.2697258168267
    CPU time for vxc     37.72 sec, wall time     15.82 sec
E1 = -4114.752628676773  Ecoul = 1891.3585865008633  Exc = -126.35717163449378
init E= -842.115411920637
cond(S) = 29.527685584106308
    CPU time for initialize scf     47.44 sec, wall time     18.17 sec
  HOMO = -0.212009300681303  LUMO = -0.14327711662225
  mo_energy =
[-1.01599499e+01 -1.01526938e+01 -1.01399043e+01 -1.01329392e+01
 -1.01302152e+01 -1.01176799e+01 -1.01169471e+01 -1.01133370e+01
 -1.01107663e+01 -1.01078838e+01 -1.01056600e+01 -1.01032099e+01
 -1.01029923e+01 -1.01028283e+01 -1.01016455e+01 -1.00993505e+01
 -1.00988169e+01 -1.00945485e+01 -1.00894584e+01 -1.00848424e+01
 -1.00788096e+01 -1.00752259e+01 -1.12471896e+00 -1.09318334e+00
 -1.04309213e+00 -1.01374762e+00 -9.69602726e-01 -9.52547788e-01
 -9.36071063e-01 -8.81386078e-01 -8.74732853e-01 -8.52544616e-01
 -8.10638232e-01 -7.68968519e-01 -7.51635082e-01 -7.13553674e-01
 -6.93117754e-01 -6.83762430e-01 -6.64914041e-01 -6.56821564e-01
 -6.00067717e-01 -5.93637659e-01 -5.85518897e-01 -5.74561408e-01
 -5.62002270e-01 -5.33773974e-01 -5.27984436e-01 -5.14342590e-01
 -5.06105036e-01 -4.99528984e-01 -4.94559510e-01 -4.70202157e-01
 -4.68077314e-01 -4.63698092e-01 -4.54805968e-01 -4.38342825e-01
 -4.35873521e-01 -4.21779610e-01 -4.11767599e-01 -4.03188091e-01
 -3.98049140e-01 -3.76775766e-01 -3.74530662e-01 -3.63097215e-01
 -3.55058135e-01 -3.37271133e-01 -3.27872697e-01 -3.18009588e-01
 -2.99666279e-01 -2.92374209e-01 -2.80442849e-01 -2.47782790e-01
 -2.12009301e-01 -1.43277117e-01 -1.12266774e-01 -6.76854886e-02
 -4.63138108e-02 -1.08351233e-02  7.13477903e-03  2.03320932e-02
  5.46495626e-02  8.19664322e-02  8.79992835e-02  9.43730331e-02
  1.12672621e-01  1.51619143e-01  1.60110033e-01  1.73914092e-01
  1.86129353e-01  1.95670018e-01  2.08411152e-01  2.29928541e-01
  2.60664225e-01  2.63694372e-01  2.87889472e-01  2.95886992e-01
  3.08821611e-01  3.28229645e-01  3.36276559e-01  3.44856388e-01
  3.57479094e-01  3.58911476e-01  3.75155222e-01  4.12852008e-01
  4.45861054e-01  4.56840329e-01  4.75775649e-01  4.83702713e-01
  4.93285967e-01  5.17079015e-01  5.39412398e-01  5.56769804e-01
  5.68899373e-01  5.87069180e-01  5.96669305e-01  6.13100328e-01
  6.67392492e-01  6.92161316e-01  7.01622489e-01  7.23334797e-01
  7.44249381e-01  7.71298748e-01  7.99150501e-01  9.99556177e-01]
nelec by numeric integration = 146.00000145509227
    CPU time for vxc     38.02 sec, wall time     15.88 sec
E1 = -4129.8710430364235  Ecoul = 1911.5266989652634  Exc = -124.97316085971686
cycle= 1 E= -835.68170304111  delta_E= 6.43  |g|= 0.286  |ddm|= 9.34
    CPU time for cycle= 1     38.34 sec, wall time     15.94 sec
  HOMO = -0.0963765098407356  LUMO = 0.000633792560288922
  mo_energy =
[-1.00537337e+01 -1.00064403e+01 -1.00004096e+01 -9.99741220e+00
 -9.99637405e+00 -9.99564892e+00 -9.99547114e+00 -9.99375238e+00
 -9.99231186e+00 -9.98845192e+00 -9.98407637e+00 -9.98366684e+00
 -9.98354262e+00 -9.98017005e+00 -9.97913601e+00 -9.97579158e+00
 -9.97166639e+00 -9.96432004e+00 -9.96273932e+00 -9.95566912e+00
 -9.93887831e+00 -9.93829113e+00 -8.38424711e-01 -8.26054198e-01
 -7.94625036e-01 -7.79838671e-01 -7.53646527e-01 -7.30826410e-01
 -7.24209031e-01 -6.93745236e-01 -6.86434665e-01 -6.67124403e-01
 -6.42960016e-01 -6.14371500e-01 -5.93750298e-01 -5.63228933e-01
 -5.53066668e-01 -5.39481034e-01 -5.30691629e-01 -5.20814534e-01
 -4.87318524e-01 -4.69482326e-01 -4.65140038e-01 -4.57930173e-01
 -4.42726682e-01 -4.17763309e-01 -4.16115774e-01 -4.03417824e-01
 -3.93606240e-01 -3.81962932e-01 -3.80495783e-01 -3.59067914e-01
 -3.53630330e-01 -3.50023170e-01 -3.37564584e-01 -3.35803707e-01
 -3.27479308e-01 -3.16993948e-01 -3.06023863e-01 -3.00472493e-01
 -2.75099816e-01 -2.72116019e-01 -2.60877199e-01 -2.49326236e-01
 -2.31191732e-01 -2.28934530e-01 -2.22806539e-01 -2.12880766e-01
 -1.95058712e-01 -1.77114693e-01 -1.72499551e-01 -1.32447183e-01
 -9.63765098e-02  6.33792560e-04  4.52487774e-02  8.85775605e-02
  1.09535014e-01  1.47741158e-01  1.75429368e-01  1.76721847e-01
  2.21764051e-01  2.37710317e-01  2.43584352e-01  2.57454369e-01
  2.70848833e-01  3.13189313e-01  3.17465217e-01  3.21182131e-01
  3.31015446e-01  3.55038722e-01  3.61631389e-01  3.75489466e-01
  3.95643220e-01  4.16144185e-01  4.24753515e-01  4.45783306e-01
  4.62004229e-01  4.69010359e-01  4.80405690e-01  4.99122963e-01
  5.09343539e-01  5.22452897e-01  5.35873257e-01  5.59746687e-01
  5.85575325e-01  6.08824389e-01  6.22316801e-01  6.23940453e-01
  6.48891648e-01  6.57844340e-01  6.93098598e-01  7.08972915e-01
  7.33917087e-01  7.44852392e-01  7.67116525e-01  7.89546971e-01
  8.43739932e-01  8.66340964e-01  8.79950408e-01  8.93797019e-01
  9.20068175e-01  9.22915838e-01  9.68622137e-01  1.21309496e+00]
nelec by numeric integration = 146.00000132500384
    CPU time for vxc     38.47 sec, wall time     15.93 sec
E1 = -4124.016545811181  Ecoul = 1905.52517125939  Exc = -124.82047260572178
cycle= 2 E= -835.676045267745  delta_E= 0.00566  |g|= 0.329  |ddm|= 0.948
    CPU time for cycle= 2     38.73 sec, wall time     15.98 sec
  HOMO = -0.10829175131044  LUMO = -0.00540064272688797
  mo_energy =
[-1.00421852e+01 -1.00345784e+01 -1.00324395e+01 -1.00285923e+01
 -1.00269477e+01 -1.00247733e+01 -1.00230061e+01 -1.00192026e+01
 -1.00161696e+01 -1.00141327e+01 -1.00102400e+01 -1.00090964e+01
 -1.00071916e+01 -1.00036181e+01 -1.00031687e+01 -9.99775605e+00
 -9.99548595e+00 -9.99468343e+00 -9.99349904e+00 -9.98369669e+00
 -9.96591264e+00 -9.96328316e+00 -8.71582725e-01 -8.55923205e-01
 -8.17965810e-01 -8.00064423e-01 -7.65034858e-01 -7.55960794e-01
 -7.42138025e-01 -7.05776048e-01 -7.01517279e-01 -6.82471328e-01
 -6.51771122e-01 -6.20049737e-01 -6.11066728e-01 -5.85839377e-01
 -5.64136198e-01 -5.53976028e-01 -5.43329641e-01 -5.35315199e-01
 -4.90530488e-01 -4.85367514e-01 -4.77446568e-01 -4.71224214e-01
 -4.61397414e-01 -4.33910708e-01 -4.30711525e-01 -4.17767445e-01
 -4.11611713e-01 -4.02640022e-01 -3.83196349e-01 -3.76123868e-01
 -3.71539101e-01 -3.65503030e-01 -3.62318754e-01 -3.48594994e-01
 -3.42594224e-01 -3.22704244e-01 -3.20929335e-01 -3.13867015e-01
 -2.94599406e-01 -2.90407252e-01 -2.83156168e-01 -2.62886666e-01
 -2.51944071e-01 -2.46019191e-01 -2.32682800e-01 -2.29464689e-01
 -2.08318589e-01 -1.96109440e-01 -1.82335207e-01 -1.47634385e-01
 -1.08291751e-01 -5.40064273e-03  2.74067387e-02  7.18720566e-02
  9.26335016e-02  1.32137671e-01  1.56701242e-01  1.63005584e-01
  2.00146666e-01  2.22098825e-01  2.36842156e-01  2.38359413e-01
  2.56252389e-01  2.88654220e-01  3.05502890e-01  3.08352772e-01
  3.21511013e-01  3.41867178e-01  3.51725697e-01  3.56908331e-01
  4.01562761e-01  4.12239928e-01  4.25388981e-01  4.32386796e-01
  4.38398433e-01  4.68162368e-01  4.73192757e-01  4.82851776e-01
  4.97136934e-01  4.99420182e-01  5.09328549e-01  5.48844335e-01
  5.89649222e-01  6.04347386e-01  6.06907173e-01  6.17059629e-01
  6.29790300e-01  6.51769512e-01  6.75234334e-01  6.88703536e-01
  7.10919521e-01  7.23283703e-01  7.41499422e-01  7.57277468e-01
  8.15534635e-01  8.32930916e-01  8.57167356e-01  8.63809971e-01
  8.93042535e-01  9.14253655e-01  9.42069402e-01  1.16102190e+00]
nelec by numeric integration = 146.00000137168004
    CPU time for vxc     38.29 sec, wall time     15.90 sec
E1 = -4126.878663375142  Ecoul = 1908.401348697079  Exc = -124.86348920779996
cycle= 3 E= -835.705001996096  delta_E= -0.029  |g|= 0.17  |ddm|= 0.694
    CPU time for cycle= 3     38.74 sec, wall time     15.97 sec
  HOMO = -0.116229638095806  LUMO = -0.0140813420393025
  mo_energy =
[-10.04305509 -10.03456105 -10.02905947 -10.02554547 -10.02242576
 -10.01931175 -10.0192672  -10.01786957 -10.01615295 -10.01393297
 -10.01354799 -10.01340367 -10.01129892 -10.01115577 -10.01042452
 -10.00953759 -10.00893389 -10.0082196  -10.00650106 -10.0050119
 -10.00486513  -9.99977129  -0.87574393  -0.85319678  -0.82172393
  -0.80181137  -0.77173765  -0.75881453  -0.7480838   -0.70706054
  -0.70327537  -0.68758867  -0.65725766  -0.62874169  -0.61512904
  -0.58328807  -0.56856267  -0.55756137  -0.54535167  -0.53787879
  -0.49556679  -0.48890436  -0.47891527  -0.47674788  -0.46139128
  -0.43536618  -0.43050227  -0.42205384  -0.41235712  -0.40482518
  -0.38591157  -0.38099238  -0.37782666  -0.37365815  -0.36208792
  -0.3529231   -0.34940776  -0.32614972  -0.32232816  -0.31575211
  -0.29885155  -0.29427736  -0.28462176  -0.26782842  -0.25788905
  -0.24954142  -0.23812739  -0.2344535   -0.21364913  -0.19659463
  -0.18705076  -0.15343222  -0.11622964  -0.01408134   0.0217409
   0.06833395   0.09094356   0.12680018   0.14800681   0.16036614
   0.19600946   0.22168935   0.22938031   0.23497346   0.25192136
   0.29140339   0.30360799   0.30985742   0.31412237   0.33971749
   0.34319623   0.35097984   0.39718723   0.40045686   0.42323592
   0.43114481   0.43922951   0.46494511   0.47192694   0.47981109
   0.49371528   0.49845639   0.50859473   0.54257796   0.5819027
   0.59555983   0.59838271   0.61402523   0.62687265   0.64837298
   0.6728181    0.68587065   0.70541894   0.72519335   0.74159931
   0.75865281   0.80927335   0.83642527   0.8470153    0.86719719
   0.88496542   0.90950071   0.94238749   1.15453894]
nelec by numeric integration = 146.0000013873432
    CPU time for vxc     37.92 sec, wall time     15.84 sec
E1 = -4126.690748812074  Ecoul = 1908.2131848259978  Exc = -124.87228697224558
cycle= 4 E= -835.714049068555  delta_E= -0.00905  |g|= 0.0607  |ddm|= 0.307
    CPU time for cycle= 4     38.55 sec, wall time     15.94 sec
  HOMO = -0.114913471365395  LUMO = -0.0130112108602822
  mo_energy =
[-10.03889273 -10.03647178 -10.03131356 -10.02284556 -10.02152819
 -10.0207316  -10.01938211 -10.01673759 -10.01596835 -10.01545632
 -10.01534629 -10.01522285 -10.0143578  -10.01401496 -10.01371558
 -10.01156524 -10.00869591 -10.00847652 -10.00837814 -10.00477812
 -10.00398571  -9.98860434  -0.87297461  -0.85537129  -0.82037586
  -0.80284388  -0.77356929  -0.75771018  -0.74692837  -0.70848963
  -0.70548381  -0.68598647  -0.65747407  -0.62654101  -0.61519811
  -0.58438226  -0.5674858   -0.55620707  -0.54601056  -0.53875059
  -0.49548821  -0.48750386  -0.48002601  -0.47545385  -0.46243736
  -0.43519516  -0.43242428  -0.41975618  -0.41386483  -0.40432327
  -0.38428958  -0.38233695  -0.37703618  -0.37302885  -0.36350913
  -0.3509364   -0.34778309  -0.32812235  -0.32360747  -0.31855484
  -0.29886224  -0.29266772  -0.28417961  -0.26966045  -0.25574472
  -0.24809273  -0.23976665  -0.23441102  -0.21297219  -0.1989903
  -0.18800379  -0.15309053  -0.11491347  -0.01301121   0.02213117
   0.06840271   0.08934392   0.12648058   0.15106699   0.15801981
   0.19627261   0.22033857   0.23105873   0.23364651   0.25096311
   0.29010249   0.3036507    0.30629846   0.31658582   0.34049875
   0.34728543   0.35335029   0.39373008   0.40543695   0.42089893
   0.43293666   0.43825933   0.46180577   0.47185197   0.47926855
   0.49188002   0.49850823   0.50819061   0.54650949   0.5853629
   0.59294542   0.60058191   0.6135871    0.62761366   0.64606939
   0.67058377   0.68710397   0.70785059   0.72309996   0.74003486
   0.75810243   0.811762     0.83447795   0.84991894   0.86477978
   0.88785166   0.90649352   0.9387072    1.15916553]
nelec by numeric integration = 146.0000013862775
    CPU time for vxc     38.73 sec, wall time     16.00 sec
E1 = -4126.700271827156  Ecoul = 1908.2221083846352  Exc = -124.87258347675373
cycle= 5 E= -835.714945029507  delta_E= -0.000896  |g|= 0.0352  |ddm|= 0.145
    CPU time for cycle= 5     39.45 sec, wall time     16.12 sec
  HOMO = -0.115322374428065  LUMO = -0.0133002944048103
  mo_energy =
[-10.03815806 -10.03430023 -10.03158654 -10.02241417 -10.02239299
 -10.01948679 -10.0185677  -10.01732112 -10.01698141 -10.01458651
 -10.01300196 -10.01231125 -10.01206088 -10.01116503 -10.01066848
 -10.01008395 -10.0084354  -10.00826959 -10.00744001 -10.00353366
 -10.00196441  -9.99609065  -0.87235811  -0.85520048  -0.81975893
  -0.801736    -0.7720233   -0.75756989  -0.74646882  -0.70846249
  -0.70454985  -0.68568107  -0.65681525  -0.62681746  -0.61434383
  -0.58487209  -0.56720765  -0.55589695  -0.54587169  -0.53798993
  -0.49479165  -0.48720132  -0.47921349  -0.47520186  -0.46232643
  -0.43486662  -0.43207193  -0.42031563  -0.41352544  -0.40404581
  -0.38395468  -0.38079061  -0.37646158  -0.3729104   -0.36328122
  -0.35051788  -0.34809593  -0.32732227  -0.3231061   -0.31769523
  -0.29780184  -0.29233092  -0.28458921  -0.26857505  -0.25575726
  -0.24801768  -0.23912784  -0.23388447  -0.21399696  -0.1988832
  -0.18776577  -0.15263771  -0.11532237  -0.01330029   0.02289189
   0.06809222   0.08961118   0.12709232   0.15110424   0.15893369
   0.19741882   0.22102206   0.22938116   0.23453492   0.25172604
   0.29039755   0.30401898   0.30672291   0.31611969   0.34064281
   0.34625593   0.35311574   0.39562373   0.40393192   0.42198209
   0.43336205   0.43903974   0.46320482   0.47244687   0.4800274
   0.49310237   0.49881454   0.50826737   0.5450677    0.58514556
   0.5952369    0.60046754   0.61346892   0.6283667    0.64741642
   0.67164686   0.68775089   0.70795291   0.72284068   0.74012789
   0.75774121   0.81230971   0.83454165   0.85078214   0.86449547
   0.88905605   0.90847404   0.9395892    1.16093081]
nelec by numeric integration = 146.00000138544684
    CPU time for vxc     38.50 sec, wall time     16.00 sec
E1 = -4126.709404429799  Ecoul = 1908.2284145065807  Exc = -124.87020456801537
cycle= 6 E= -835.715392601467  delta_E= -0.000448  |g|= 0.00978  |ddm|= 0.068
    CPU time for cycle= 6     39.18 sec, wall time     16.11 sec
  HOMO = -0.114868232261529  LUMO = -0.0126815061677657
  mo_energy =
[-10.03730925 -10.03555187 -10.0300556  -10.02249704 -10.02047746
 -10.02000127 -10.0173029  -10.01697907 -10.01694184 -10.0151703
 -10.01346867 -10.01189162 -10.01176288 -10.01111596 -10.00927434
 -10.00918327 -10.00853555 -10.00738528 -10.00656592 -10.00277984
 -10.00236303  -9.99427637  -0.87243136  -0.85439434  -0.81970607
  -0.80150808  -0.77174168  -0.75723016  -0.74630918  -0.70768928
  -0.70411586  -0.68555471  -0.6565111   -0.62644347  -0.61425868
  -0.58414369  -0.5669756   -0.55585986  -0.54542173  -0.53778408
  -0.49455253  -0.48720013  -0.47901178  -0.47508089  -0.46182819
  -0.43452384  -0.43166438  -0.42004108  -0.41306181  -0.40396779
  -0.38388178  -0.38053098  -0.37650741  -0.37260388  -0.36271226
  -0.35068981  -0.3477672   -0.32693355  -0.32269239  -0.31720053
  -0.29776491  -0.29244387  -0.2843209   -0.26818261  -0.25553657
  -0.24805027  -0.23852864  -0.23372862  -0.21318388  -0.19804095
  -0.18730214  -0.1524092   -0.11486823  -0.01268151   0.02312816
   0.0687074    0.09026335   0.12736494   0.15128414   0.15946559
   0.19737657   0.22132908   0.23060399   0.23479729   0.25202242
   0.290566     0.30433729   0.3075783    0.31641119   0.34083678
   0.34659922   0.3531459    0.39590685   0.40449322   0.42230032
   0.43305222   0.43898891   0.4635426    0.47268658   0.48012514
   0.49342302   0.49905981   0.50870074   0.54556436   0.58527376
   0.59532693   0.60071462   0.6140537    0.62841663   0.64768893
   0.67206707   0.68765105   0.70799395   0.72374653   0.74082063
   0.75830292   0.81234845   0.83518245   0.85073281   0.86551422
   0.88867111   0.9087968    0.94029806   1.1601963 ]
nelec by numeric integration = 146.00000138420154
    CPU time for vxc     38.22 sec, wall time     15.88 sec
E1 = -4126.670275630302  Ecoul = 1908.1888264882068  Exc = -124.86977956624469
cycle= 7 E= -835.715426818573  delta_E= -3.42e-05  |g|= 0.00191  |ddm|= 0.0158
    CPU time for cycle= 7     38.65 sec, wall time     15.95 sec
  HOMO = -0.114840019007224  LUMO = -0.0126192469716114
  mo_energy =
[-10.03732752 -10.03578293 -10.03008754 -10.02187795 -10.02064159
 -10.0202006  -10.01710226 -10.01689892 -10.01674763 -10.01501828
 -10.01317344 -10.01189698 -10.01159327 -10.01110851 -10.00932246
 -10.00915346 -10.00839951 -10.00726398 -10.00703489 -10.00282293
 -10.00241666  -9.9941392   -0.87240646  -0.85440917  -0.81962634
  -0.80149032  -0.77172445  -0.75721799  -0.74628937  -0.70768898
  -0.70406444  -0.68552694  -0.65646386  -0.62641535  -0.61422468
  -0.58412114  -0.56697935  -0.5558226   -0.54539696  -0.53775396
  -0.49455177  -0.48715766  -0.47897937  -0.47507735  -0.46181016
  -0.4345315   -0.43164167  -0.41999934  -0.4130496   -0.40390266
  -0.38384206  -0.38051808  -0.37649453  -0.37260835  -0.36272154
  -0.35062917  -0.34777669  -0.32691252  -0.32264419  -0.31718552
  -0.29774012  -0.29239685  -0.28423293  -0.26817776  -0.25553405
  -0.24799196  -0.23853408  -0.23367434  -0.21315149  -0.19803356
  -0.18724699  -0.15237948  -0.11484002  -0.01261925   0.02314466
   0.06877248   0.09029817   0.1274295    0.15126583   0.15946503
   0.1974131    0.22139368   0.23060378   0.23484738   0.25205546
   0.29063128   0.3043499    0.30756405   0.31635451   0.34089099
   0.34664827   0.35314975   0.39593957   0.40452258   0.4223134
   0.43309368   0.4391449    0.46356474   0.47268878   0.48012131
   0.4934147    0.49909904   0.50873295   0.54561183   0.58529186
   0.59534068   0.6007526    0.61406704   0.62841813   0.6477052
   0.67208514   0.68767639   0.7080896    0.72374884   0.74089127
   0.75842145   0.81236094   0.83525058   0.85074881   0.86552513
   0.88871396   0.90880695   0.94032332   1.16009343]
nelec by numeric integration = 146.00000138417002
    CPU time for vxc     38.17 sec, wall time     15.87 sec
E1 = -4126.670571076562  Ecoul = 1908.1891025707448  Exc = -124.86976135619712
cycle= 8 E= -835.715427972247  delta_E= -1.15e-06  |g|= 0.000393  |ddm|= 0.00294
    CPU time for cycle= 8     38.60 sec, wall time     15.94 sec
  HOMO = -0.114859782272556  LUMO = -0.0126234027102152
  mo_energy =
[-10.03735002 -10.03568053 -10.03007729 -10.02202404 -10.02068267
 -10.02020845 -10.01716472 -10.01688164 -10.01679798 -10.01500747
 -10.01319747 -10.01186929 -10.01162444 -10.01111499 -10.00932815
 -10.00914926 -10.00839874 -10.00734249 -10.00701076 -10.00282854
 -10.00239705  -9.99416261  -0.87242018  -0.85441733  -0.81964979
  -0.80149848  -0.77172625  -0.75722404  -0.74629352  -0.7076912
  -0.70408152  -0.68553687  -0.65647361  -0.62642619  -0.61423665
  -0.58413042  -0.56698327  -0.55582872  -0.54540493  -0.53776841
  -0.49455763  -0.48716886  -0.4789886   -0.4750826   -0.46181647
  -0.43453393  -0.43164111  -0.42001218  -0.4130505   -0.40391504
  -0.38385448  -0.38051972  -0.37649384  -0.3726073   -0.36272425
  -0.35064362  -0.34777928  -0.3269128   -0.32265578  -0.31719286
  -0.29774884  -0.2924003   -0.28423799  -0.26817699  -0.25553865
  -0.24799597  -0.23853789  -0.23368499  -0.21316008  -0.19804177
  -0.18726076  -0.15239336  -0.11485978  -0.0126234    0.02314086
   0.06876004   0.09028585   0.12741845   0.15126572   0.15946625
   0.19740512   0.22138964   0.23059672   0.23483695   0.25205102
   0.2906437    0.30434968   0.30756549   0.31636865   0.3408782
   0.34663138   0.35314792   0.39594219   0.40451078   0.42230944
   0.43308033   0.43911284   0.46356705   0.47269368   0.4801271
   0.4934128    0.49909044   0.50872033   0.54559434   0.58528663
   0.59533233   0.60073994   0.61406384   0.62841157   0.64769853
   0.67207556   0.68766383   0.70806115   0.72374481   0.74087445
   0.7583951    0.81235284   0.83522788   0.85073587   0.86551135
   0.88869734   0.90880476   0.94030952   1.16011088]
nelec by numeric integration = 146.0000013844113
    CPU time for vxc     38.01 sec, wall time     15.88 sec
E1 = -4126.672084102258  Ecoul = 1908.1906506953742  Exc = -124.86979650058447
cycle= 9 E= -835.715428017701  delta_E= -4.55e-08  |g|= 0.000185  |ddm|= 0.000734
    CPU time for cycle= 9     38.46 sec, wall time     15.95 sec
  HOMO = -0.114859623450921  LUMO = -0.0126204616541452
  mo_energy =
[-10.03733725 -10.03569857 -10.03009676 -10.02199544 -10.02065393
 -10.0201974  -10.01714457 -10.01690614 -10.01677835 -10.01502237
 -10.01320939 -10.01188412 -10.01162904 -10.01111651 -10.00932677
 -10.00917081 -10.00842029 -10.00731197 -10.00697455 -10.00283033
 -10.00244573  -9.99415214  -0.87241336  -0.85441886  -0.81964961
  -0.80150103  -0.77173193  -0.75722084  -0.74629016  -0.70769647
  -0.70407932  -0.68553823  -0.65647361  -0.62642517  -0.61423914
  -0.58412724  -0.56698541  -0.55582456  -0.54540677  -0.53776671
  -0.4945589   -0.48716577  -0.47898977  -0.47508189  -0.46181976
  -0.43453764  -0.43164476  -0.42000568  -0.41305341  -0.40391366
  -0.38384825  -0.38052437  -0.37650199  -0.37260527  -0.36272589
  -0.35063813  -0.3477709   -0.3269155   -0.32265771  -0.31719525
  -0.29774932  -0.29239719  -0.28423347  -0.2681833   -0.25553257
  -0.24799193  -0.23853975  -0.23368486  -0.21315403  -0.19804144
  -0.18726192  -0.15239712  -0.11485962  -0.01262046   0.02313944
   0.06876163   0.09028747   0.12741908   0.15127205   0.15945851
   0.1974058    0.22139317   0.23060357   0.23483502   0.2520524
   0.29064345   0.30435078   0.30755799   0.31637936   0.34088451
   0.34664341   0.35315939   0.39593339   0.40452298   0.42230656
   0.43307885   0.43912226   0.46355585   0.47269059   0.48012251
   0.49340451   0.49908286   0.50872013   0.54560021   0.58529174
   0.59532695   0.60074773   0.61405939   0.62840349   0.64769379
   0.67206991   0.687657     0.70806631   0.72374057   0.74087193
   0.75839638   0.81235593   0.83522988   0.85074199   0.86551141
   0.88869694   0.90879979   0.94031028   1.16011461]
nelec by numeric integration = 146.00000138436747
    CPU time for vxc     37.75 sec, wall time     15.76 sec
E1 = -4126.671790989313  Ecoul = 1908.1903621741037  Exc = -124.8698011024753
cycle= 10 E= -835.715428027917  delta_E= -1.02e-08  |g|= 7.92e-05  |ddm|= 0.000352
    CPU time for cycle= 10     38.08 sec, wall time     15.82 sec
  HOMO = -0.114860959534486  LUMO = -0.0126213362080017
  mo_energy =
[-10.03734788 -10.03570308 -10.03009479 -10.02199755 -10.02065207
 -10.02020418 -10.01715672 -10.01691296 -10.01678919 -10.01502433
 -10.01321148 -10.01188573 -10.0116369  -10.01111966 -10.00932912
 -10.00916904 -10.0084145  -10.00731958 -10.00699194 -10.00282426
 -10.00241921  -9.99414687  -0.87241674  -0.85442288  -0.81965039
  -0.8015027   -0.77173299  -0.75722392  -0.74629373  -0.70769855
  -0.70408267  -0.68553639  -0.65647415  -0.6264249   -0.61423906
  -0.58413221  -0.56698495  -0.55582699  -0.54540768  -0.53776853
  -0.49455914  -0.48716785  -0.47899155  -0.4750814   -0.46182169
  -0.43453877  -0.43164717  -0.42000788  -0.41305656  -0.4039149
  -0.38385189  -0.38052324  -0.37649842  -0.37260692  -0.36272912
  -0.35063995  -0.34777434  -0.32691753  -0.32265993  -0.31719698
  -0.29775015  -0.29239986  -0.28423753  -0.2681848   -0.25553598
  -0.2479948   -0.23854073  -0.23368702  -0.21315798  -0.19804484
  -0.18726369  -0.15239578  -0.11486096  -0.01262134   0.02314072
   0.06875951   0.0902838    0.12741691   0.15126914   0.15945678
   0.19740436   0.22138872   0.23060154   0.23483376   0.25205047
   0.2906384    0.30434672   0.307557     0.31637444   0.34088047
   0.34663968   0.35315529   0.39593372   0.40451935   0.42230534
   0.43308059   0.43911748   0.46355767   0.47268857   0.48012177
   0.49340513   0.49908538   0.50871816   0.54559887   0.58528888
   0.59532887   0.60074384   0.6140583    0.62840743   0.64769329
   0.6720697    0.68766132   0.70806448   0.72373703   0.74086908
   0.75839272   0.81235306   0.83522474   0.85073957   0.86550716
   0.88869808   0.90879755   0.94030495   1.16011372]
nelec by numeric integration = 146.0000013843805
    CPU time for vxc     38.49 sec, wall time     15.97 sec
E1 = -4126.672100007783  Ecoul = 1908.1906732665861  Exc = -124.86980317839442
cycle= 11 E= -835.715428029825  delta_E= -1.91e-09  |g|= 4.04e-05  |ddm|= 0.000167
    CPU time for cycle= 11     39.06 sec, wall time     16.07 sec
  HOMO = -0.114861510850379  LUMO = -0.0126203908959961
  mo_energy =
[-10.03734822 -10.03570393 -10.03009286 -10.02200308 -10.0206624
 -10.02020423 -10.0171587  -10.01690908 -10.01678921 -10.01501918
 -10.01320612 -10.01188328 -10.01163436 -10.01111891 -10.00932937
 -10.0091663  -10.00841157 -10.00731349 -10.00698409 -10.00282548
 -10.00242786  -9.99414795  -0.87241811  -0.85442238  -0.81964989
  -0.80150234  -0.77173202  -0.75722434  -0.74629226  -0.70769768
  -0.70408231  -0.68553651  -0.65647384  -0.6264243   -0.61423875
  -0.58413208  -0.56698472  -0.55582788  -0.54540724  -0.53776868
  -0.49455828  -0.48716734  -0.47899105  -0.47508193  -0.46182097
  -0.43453846  -0.43164685  -0.42000818  -0.4130557   -0.40391537
  -0.38385306  -0.38052179  -0.37650019  -0.3726056   -0.36272876
  -0.35063943  -0.34777372  -0.32691632  -0.32265944  -0.31719644
  -0.29775011  -0.29239913  -0.28423879  -0.26818387  -0.25553634
  -0.24799628  -0.23853985  -0.23368629  -0.21315755  -0.19804422
  -0.18726322  -0.15239609  -0.11486151  -0.01262039   0.02314106
   0.06875961   0.09028426   0.12741786   0.15126924   0.15945792
   0.19740391   0.22138769   0.23060178   0.23483354   0.25204967
   0.29063639   0.30434689   0.30755791   0.31637646   0.34087942
   0.34664011   0.35315725   0.39593498   0.40452049   0.42230599
   0.43308068   0.43911477   0.46355925   0.47268843   0.48012177
   0.49340619   0.49908483   0.50871761   0.54559881   0.58528947
   0.5953302    0.60074568   0.61405961   0.62840674   0.64769411
   0.67206987   0.68766078   0.70806484   0.72373813   0.74086964
   0.75839267   0.81235354   0.83522465   0.85074207   0.86550763
   0.88869924   0.90879861   0.9403053    1.16010942]
nelec by numeric integration = 146.00000138437505
    CPU time for vxc     37.94 sec, wall time     15.81 sec
E1 = -4126.6720901198405  Ecoul = 1908.1906623075038  Exc = -124.86980210776407
cycle= 12 E= -835.715428030334  delta_E= -5.09e-10  |g|= 1.6e-05  |ddm|= 8.07e-05
    CPU time for cycle= 12     38.32 sec, wall time     15.87 sec
  HOMO = -0.11486046026718  LUMO = -0.0126195521957117
  mo_energy =
[-10.03734545 -10.03569995 -10.03009482 -10.02199889 -10.02065712
 -10.02020378 -10.01715517 -10.01690732 -10.01678582 -10.01501983
 -10.0132072  -10.01188186 -10.01163215 -10.01111674 -10.00932827
 -10.00916696 -10.00841311 -10.00731585 -10.00698276 -10.00282568
 -10.00242554  -9.9941459   -0.87241572  -0.85442125  -0.81964945
  -0.80150165  -0.77173124  -0.75722256  -0.74629147  -0.70769709
  -0.70408122  -0.68553593  -0.65647315  -0.62642373  -0.61423827
  -0.58413081  -0.56698412  -0.55582637  -0.54540675  -0.53776777
  -0.49455802  -0.48716674  -0.47899043  -0.47508091  -0.46182047
  -0.43453773  -0.4316462   -0.42000684  -0.41305489  -0.4039143
  -0.38385097  -0.3805219   -0.37649909  -0.37260511  -0.36272772
  -0.35063928  -0.34777274  -0.32691606  -0.32265884  -0.31719587
  -0.29774937  -0.2923988   -0.28423702  -0.26818309  -0.25553448
  -0.24799439  -0.23853945  -0.23368547  -0.21315629  -0.19804313
  -0.1872624   -0.15239544  -0.11486046  -0.01261955   0.02314168
   0.06876068   0.09028545   0.12741874   0.15127098   0.15945854
   0.19740494   0.22138937   0.23060289   0.23483449   0.25205108
   0.29063847   0.3043481    0.30755775   0.3163767    0.34088141
   0.34664154   0.35315689   0.39593482   0.40452189   0.42230643
   0.43308071   0.43911723   0.46355837   0.47268958   0.48012283
   0.49340629   0.49908544   0.50871877   0.54559994   0.58529055
   0.59532999   0.60074619   0.61406      0.62840726   0.64769471
   0.67207055   0.68766094   0.708066     0.72373893   0.74087061
   0.75839403   0.81235499   0.83522605   0.85074193   0.8655086
   0.88869887   0.90879967   0.9403068    1.16011306]
nelec by numeric integration = 146.00000138437412
    CPU time for vxc     37.64 sec, wall time     15.85 sec
E1 = -4126.671980305049  Ecoul = 1908.1905509046312  Exc = -124.86980051976408
cycle= 13 E= -835.715428030415  delta_E= -8.09e-11  |g|= 6.31e-06  |ddm|= 3.32e-05
    CPU time for cycle= 13     38.30 sec, wall time     15.95 sec
  HOMO = -0.114861141632468  LUMO = -0.0126200045112903
  mo_energy =
[-10.03734654 -10.03570322 -10.03009218 -10.02200132 -10.02065922
 -10.0202019  -10.01715703 -10.01690816 -10.01678845 -10.01502045
 -10.01320699 -10.01188318 -10.01163423 -10.01111823 -10.00932776
 -10.00916631 -10.00841246 -10.00731403 -10.00698528 -10.00282552
 -10.00242877  -9.99414717  -0.87241731  -0.85442148  -0.81964974
  -0.80150188  -0.77173175  -0.75722369  -0.74629228  -0.70769713
  -0.70408175  -0.68553662  -0.65647358  -0.62642423  -0.61423879
  -0.58413114  -0.56698475  -0.55582728  -0.54540691  -0.5377682
  -0.49455828  -0.48716717  -0.47899079  -0.47508177  -0.46182051
  -0.43453812  -0.43164636  -0.42000768  -0.41305523  -0.40391501
  -0.3838522   -0.38052204  -0.3765001   -0.37260574  -0.36272805
  -0.35063928  -0.34777349  -0.32691614  -0.32265893  -0.31719595
  -0.29774973  -0.29239901  -0.28423768  -0.26818348  -0.25553584
  -0.24799552  -0.23853952  -0.23368617  -0.21315677  -0.19804335
  -0.18726278  -0.15239612  -0.11486114  -0.01262      0.023141
   0.06876022   0.090285     0.12741805   0.15126947   0.15945835
   0.19740444   0.22138887   0.23060272   0.23483407   0.2520505
   0.29063785   0.30434759   0.30755843   0.31637621   0.34088033
   0.34664039   0.35315704   0.39593498   0.40452054   0.42230624
   0.43308049   0.43911626   0.46355894   0.47268879   0.48012181
   0.49340612   0.49908484   0.5087183    0.54559928   0.58528969
   0.59532982   0.60074569   0.61405976   0.62840644   0.64769419
   0.67207019   0.68766039   0.70806486   0.7237388    0.74087034
   0.75839351   0.81235366   0.83522565   0.85074172   0.86550871
   0.88869887   0.90879904   0.94030634   1.16011087]
nelec by numeric integration = 146.00000138437863
    CPU time for vxc     38.15 sec, wall time     15.84 sec
E1 = -4126.672041045806  Ecoul = 1908.19061310352  Exc = -124.86980197786733
Extra cycle  E= -835.715428030386  delta_E= 2.91e-11  |g|= 1.12e-05  |ddm|= 2.6e-05
    CPU time for scf_cycle    588.47 sec, wall time    241.67 sec
    CPU time for SCF    588.47 sec, wall time    241.67 sec
converged SCF energy = -835.715428030386
nelec by numeric integration = 146.00000138437863
    CPU time for vxc     38.19 sec, wall time     15.85 sec
 ** Mulliken pop  **
pop of  0 C 1s            1.99127
pop of  0 C 2s            1.05563
pop of  0 C 2px           0.99185
pop of  0 C 2py           0.99359
pop of  0 C 2pz           0.99077
pop of  1 C 1s            1.99040
pop of  1 C 2s            1.08925
pop of  1 C 2px           1.02098
pop of  1 C 2py           0.98448
pop of  1 C 2pz           0.93741
pop of  2 C 1s            1.99109
pop of  2 C 2s            1.17341
pop of  2 C 2px           0.99878
pop of  2 C 2py           0.91668
pop of  2 C 2pz           0.99908
pop of  3 C 1s            1.99140
pop of  3 C 2s            1.04530
pop of  3 C 2px           1.02713
pop of  3 C 2py           0.98966
pop of  3 C 2pz           1.03324
pop of  4 C 1s            1.99094
pop of  4 C 2s            1.13190
pop of  4 C 2px           0.98084
pop of  4 C 2py           0.94814
pop of  4 C 2pz           0.97842
pop of  5 C 1s            1.99131
pop of  5 C 2s            1.18944
pop of  5 C 2px           0.94905
pop of  5 C 2py           0.95658
pop of  5 C 2pz           0.95763
pop of  6 C 1s            1.99045
pop of  6 C 2s            1.05655
pop of  6 C 2px           1.03120
pop of  6 C 2py           1.04770
pop of  6 C 2pz           1.02642
pop of  7 C 1s            1.99058
pop of  7 C 2s            1.11878
pop of  7 C 2px           0.99399
pop of  7 C 2py           0.99533
pop of  7 C 2pz           0.98746
pop of  8 C 1s            1.99038
pop of  8 C 2s            1.10786
pop of  8 C 2px           0.99263
pop of  8 C 2py           0.95179
pop of  8 C 2pz           0.96939
pop of  9 C 1s            1.99103
pop of  9 C 2s            1.15228
pop of  9 C 2px           0.98379
pop of  9 C 2py           0.92260
pop of  9 C 2pz           0.94769
pop of  10 C 1s           1.99112
pop of  10 C 2s           1.12062
pop of  10 C 2px          0.99561
pop of  10 C 2py          0.95529
pop of  10 C 2pz          0.96068
pop of  11 C 1s           1.99197
pop of  11 C 2s           1.26836
pop of  11 C 2px          0.95123
pop of  11 C 2py          0.91604
pop of  11 C 2pz          0.94606
pop of  12 C 1s           1.99014
pop of  12 C 2s           1.04215
pop of  12 C 2px          1.04556
pop of  12 C 2py          0.98868
pop of  12 C 2pz          0.98695
pop of  13 C 1s           1.99140
pop of  13 C 2s           1.13387
pop of  13 C 2px          0.95778
pop of  13 C 2py          0.93261
pop of  13 C 2pz          0.94687
pop of  14 C 1s           1.99075
pop of  14 C 2s           1.13532
pop of  14 C 2px          1.00831
pop of  14 C 2py          0.95243
pop of  14 C 2pz          0.98916
pop of  15 C 1s           1.99049
pop of  15 C 2s           1.09718
pop of  15 C 2px          1.03417
pop of  15 C 2py          0.97410
pop of  15 C 2pz          1.03609
pop of  16 C 1s           1.99144
pop of  16 C 2s           1.18981
pop of  16 C 2px          0.97088
pop of  16 C 2py          0.93575
pop of  16 C 2pz          0.90744
pop of  17 C 1s           1.99058
pop of  17 C 2s           1.09090
pop of  17 C 2px          0.98573
pop of  17 C 2py          0.97934
pop of  17 C 2pz          0.96353
pop of  18 C 1s           1.99143
pop of  18 C 2s           1.13239
pop of  18 C 2px          1.00451
pop of  18 C 2py          0.94870
pop of  18 C 2pz          1.01028
pop of  19 C 1s           1.99084
pop of  19 C 2s           1.12446
pop of  19 C 2px          0.99726
pop of  19 C 2py          0.95627
pop of  19 C 2pz          0.99838
pop of  20 C 1s           1.99088
pop of  20 C 2s           1.12032
pop of  20 C 2px          0.99892
pop of  20 C 2py          1.01679
pop of  20 C 2pz          0.98257
pop of  21 C 1s           1.99104
pop of  21 C 2s           1.17719
pop of  21 C 2px          0.99208
pop of  21 C 2py          0.98538
pop of  21 C 2pz          0.92922
pop of  22 H 1s           0.90031
pop of  23 H 1s           0.91101
pop of  24 H 1s           0.93913
pop of  25 H 1s           0.94201
pop of  26 H 1s           0.87988
pop of  27 H 1s           0.90951
pop of  28 H 1s           0.96476
pop of  29 H 1s           0.90984
pop of  30 H 1s           0.92162
pop of  31 H 1s           0.88330
pop of  32 H 1s           0.90002
pop of  33 H 1s           0.93139
pop of  34 H 1s           0.90811
pop of  35 H 1s           0.90028
 ** Mulliken atomic charges  **
charge of    0C =     -0.02311
charge of    1C =     -0.02252
charge of    2C =     -0.07904
charge of    3C =     -0.08674
charge of    4C =     -0.03024
charge of    5C =     -0.04401
charge of    6C =     -0.15233
charge of    7C =     -0.08614
charge of    8C =     -0.01205
charge of    9C =      0.00261
charge of   10C =     -0.02332
charge of   11C =     -0.07366
charge of   12C =     -0.05347
charge of   13C =      0.03746
charge of   14C =     -0.07597
charge of   15C =     -0.13203
charge of   16C =      0.00468
charge of   17C =     -0.01009
charge of   18C =     -0.08731
charge of   19C =     -0.06721
charge of   20C =     -0.10948
charge of   21C =     -0.07490
charge of   22H =      0.09969
charge of   23H =      0.08899
charge of   24H =      0.06087
charge of   25H =      0.05799
charge of   26H =      0.12012
charge of   27H =      0.09049
charge of   28H =      0.03524
charge of   29H =      0.09016
charge of   30H =      0.07838
charge of   31H =      0.11670
charge of   32H =      0.09998
charge of   33H =      0.06861
charge of   34H =      0.09189
charge of   35H =      0.09972
Dipole moment(X, Y, Z, Debye):  0.15443, -0.46255, -0.50634
nelec by numeric integration = 146.00000138437863
    CPU time for vxc     38.10 sec, wall time     16.01 sec
E1 = -4126.672041045806  Ecoul = 1908.19061310352  Exc = -124.86980197786733
nelec by numeric integration = 146.00000138437863
    CPU time for vxc     37.50 sec, wall time     15.73 sec
E1 = -4126.672041045806  Ecoul = 1908.1906131035194  Exc = -124.86980197786731
