System: uname_result(system='Linux', node='cosmopc18', release='5.15.0-97-generic', version='#107-Ubuntu SMP Wed Feb 7 13:26:48 UTC 2024', machine='x86_64')  Threads 4
Python 3.11.8 (main, Feb 26 2024, 21:39:34) [GCC 11.2.0]
numpy 1.26.4  scipy 1.11.4
Date: Tue Apr  9 16:23:27 2024
PySCF version 2.3.0
PySCF path  /home/saade/miniconda3/envs/tutorial/lib/python3.11/site-packages/pyscf

[ENV] PYSCFAD_BACKEND torch
[CONFIG] conf_file None
[INPUT] verbose = 5
[INPUT] max_memory = 4000 
[INPUT] num. atoms = 36
[INPUT] num. electrons = 146
[INPUT] charge = 0
[INPUT] spin (= nelec alpha-beta = 2S) = 0
[INPUT] symmetry False subgroup None
[INPUT] Mole.unit = angstrom
[INPUT] Symbol           X                Y                Z      unit          X                Y                Z       unit  Magmom
[INPUT]  1 C     -0.033725000000   3.572612000000   0.686067000000 AA   -0.063731013551   6.751258229335   1.296478733102 Bohr   0.0
[INPUT]  2 C     -0.124333000000   3.793637000000  -0.851226000000 AA   -0.234955318246   7.168934946017  -1.608584010109 Bohr   0.0
[INPUT]  3 C     -0.015289000000   4.884065000000   1.413458000000 AA   -0.028892022718   9.229545224574   2.671048508575 Bohr   0.0
[INPUT]  4 C     -0.106963000000   2.504473000000   1.269450000000 AA   -0.202130775462   4.732768056368   2.398912828829 Bohr   0.0
[INPUT]  5 C     -0.028157000000   4.807482000000  -1.310247000000 AA   -0.053209018489   9.084824328776  -2.476007985533 Bohr   0.0
[INPUT]  6 C     -0.033075000000   2.418398000000  -1.447759000000 AA   -0.062502691570   4.570109880196  -2.735868004374 Bohr   0.0
[INPUT]  7 C      0.049918000000   6.079995000000  -0.791978000000 AA    0.094331348686  11.489525388725  -1.496621516681 Bohr   0.0
[INPUT]  8 C      0.215798000000   6.049416000000   0.784695000000 AA    0.407799118229  11.431739453562   1.482858641316 Bohr   0.0
[INPUT]  9 C     -0.067230000000   1.139322000000   0.871986000000 AA   -0.127046287355   2.153006547692   1.647814724455 Bohr   0.0
[INPUT] 10 C     -0.195371000000   1.205023000000  -0.734387000000 AA   -0.369197682682   2.277163443802  -1.387790299441 Bohr   0.0
[INPUT] 11 C     -0.091109000000   0.084887000000   1.521997000000 AA   -0.172171057483   0.160413181536   2.876157492410 Bohr   0.0
[INPUT] 12 C     -0.146337000000  -0.008814000000  -1.403803000000 AA   -0.276536851890  -0.016656046062  -2.652803202843 Bohr   0.0
[INPUT] 13 C      0.104586000000  -1.311303000000   0.688667000000 AA    0.197638896464  -2.478003536321   1.301392021026 Bohr   0.0
[INPUT] 14 C      0.133098000000  -1.295246000000  -0.624220000000 AA    0.251518767727  -2.447660203938  -1.179604841476 Bohr   0.0
[INPUT] 15 C      0.012339000000  -2.440069000000   1.576124000000 AA    0.023317330651  -4.611062135041   2.978442698354 Bohr   0.0
[INPUT] 16 C      0.123988000000  -2.590190000000  -1.293402000000 AA    0.234303362733  -4.894749710587  -2.444175548965 Bohr   0.0
[INPUT] 17 C     -0.008900000000  -3.500634000000   0.753772000000 AA   -0.016818562509  -6.615239522341   1.424422640366 Bohr   0.0
[INPUT] 18 C     -0.041722000000  -3.744818000000  -0.791544000000 AA   -0.078843153369  -7.076680406341  -1.495801375543 Bohr   0.0
[INPUT] 19 C      0.012741000000  -5.096068000000   1.351467000000 AA    0.024077000553  -9.630172832160   2.553902496388 Bohr   0.0
[INPUT] 20 C      0.149404000000  -4.692875000000  -1.379311000000 AA    0.282332641915  -8.868248486818  -2.606520030600 Bohr   0.0
[INPUT] 21 C     -0.156869000000  -6.003776000000   0.819733000000 AA   -0.296439447434 -11.345492353237   1.549070865268 Bohr   0.0
[INPUT] 22 C      0.089744000000  -5.992470000000  -0.856276000000 AA    0.169591581323 -11.324127109672  -1.618127127038 Bohr   0.0
[INPUT] 23 H      0.027205000000   4.986178000000   2.551546000000 AA    0.051409999219   9.422510828332   4.821723134229 Bohr   0.0
[INPUT] 24 H     -0.026892000000   2.326100000000   2.520800000000 AA   -0.050818514942   4.395691938351   4.763621614804 Bohr   0.0
[INPUT] 25 H     -0.050947000000   4.926049000000  -2.479792000000 AA   -0.096275876868   9.308883486188  -4.686127725887 Bohr   0.0
[INPUT] 26 H      0.083840000000   2.672103000000  -2.535775000000 AA    0.158434638284   5.049542846629  -4.791920263519 Bohr   0.0
[INPUT] 27 H      0.079729000000   6.967906000000  -1.405773000000 AA    0.150665974185  13.167434001714  -2.656525963308 Bohr   0.0
[INPUT] 28 H     -0.148121000000   7.008463000000   1.070562000000 AA   -0.279908123297  13.244075624148   2.023068979367 Bohr   0.0
[INPUT] 29 H      0.054188000000  -0.236711000000   2.457055000000 AA    0.102400479238  -0.447318960672   4.643161022993 Bohr   0.0
[INPUT] 30 H      0.041840000000   0.102765000000  -2.623742000000 AA    0.079066141052   0.194197705191  -4.958153801519 Bohr   0.0
[INPUT] 31 H     -0.000307000000  -2.428462000000   2.348078000000 AA   -0.000580145920  -4.589128083914   4.437224339116 Bohr   0.0
[INPUT] 32 H      0.101279000000  -2.516057000000  -2.655368000000 AA    0.191389572170  -4.754658643795  -5.017918279934 Bohr   0.0
[INPUT] 33 H     -0.147192000000  -4.834462000000   2.599128000000 AA   -0.278152567727  -9.135809139617   4.911640082689 Bohr   0.0
[INPUT] 34 H      0.050863000000  -4.933577000000  -2.417146000000 AA    0.096117139874  -9.323109344453  -4.567743943088 Bohr   0.0
[INPUT] 35 H      0.022723000000  -6.968521000000   1.308841000000 AA    0.042940246728 -13.168596183280   2.473351030602 Bohr   0.0
[INPUT] 36 H      0.000507000000  -7.052534000000  -1.219681000000 AA    0.000958091145 -13.327357744183  -2.304863049336 Bohr   0.0
[INPUT] ---------------- BASIS SET ---------------- 
[INPUT] l, kappa, [nprim/nctr], expnt,             c_1 c_2 ...
[INPUT] H
[INPUT] 0    0    [3    /1   ]  3.42525091        0.15432897
                                0.62391373        0.53532814
                                0.1688554         0.44463454
[INPUT] C
[INPUT] 0    0    [3    /1   ]  71.616837         0.15432897
                                13.045096         0.53532814
                                3.5305122         0.44463454
[INPUT] 0    0    [3    /1   ]  2.9412494         -0.09996723
                                0.6834831         0.39951283
                                0.2222899         0.70011547
[INPUT] 1    0    [3    /1   ]  2.9412494         0.15591627
                                0.6834831         0.60768372
                                0.2222899         0.39195739

nuclear repulsion = 1501.30150484975
number of shells = 80
number of NR pGTOs = 372
number of NR cGTOs = 124
basis = sto3g
ecp = {}
CPU time:     58741.12
atom C rad-grids = 99, ang-grids = [ 50  50  50  50  50  50  50  50  50  50  50  50  50  50  50  50  50  50
  50  50  50  50  50  50  50  50  50  50  50  50  50  86  86  86  86  86
  86  86  86  86  86  86  86 434 434 434 434 434 434 434 434 434 590 590
 590 590 590 590 590 590 590 590 590 590 590 590 590 590 590 590 590 590
 590 590 590 590 590 590 590 434 434 434 434 434 434 434 434 434 434 434
 434 434 434 434 434 434 434 434 434]
atom H rad-grids = 99, ang-grids = [ 50  50  50  50  50  50  50  50  50  50  50  50  50  50  50  50  50  50
  50  50  50  50  50  50  50  50  50  50  86  86  86  86  86  86  86 434
 434 434 434 434 434 434 434 590 590 590 590 590 590 590 590 590 590 590
 590 590 590 590 590 590 590 590 590 590 590 590 590 590 590 434 434 434
 434 434 434 434 434 434 434 434 434 434 434 434 434 434 434 434 434 434
 434 434 434 434 434 434 434 434 434]
tot_boxes 5270, boxes in each direction [ 8 29 15]
Padding 0 grids
tot grids = 1157832


******** <class 'pyscf.dft.rks.RKS'> ********
method = RKS
initial guess = minao
damping factor = 0
level_shift factor = 0
DIIS = <class 'pyscf.scf.diis.CDIIS'>
diis_start_cycle = 1
diis_space = 8
SCF conv_tol = 1e-10
SCF conv_tol_grad = None
SCF max_cycles = 50
direct_scf = True
direct_scf_tol = 1e-13
chkfile to save SCF result = /home/saade/mlelec/tutorials/tmp4rw2dstt
max_memory 4000 MB (current use 690 MB)
XC library pyscf.dft.libxc version 6.1.0
    S. Lehtola, C. Steigemann, M. J.T. Oliveira, and M. A.L. Marques.,  SoftwareX 7, 1–5 (2018)
XC functionals = b3lypg
    P. J. Stephens, F. J. Devlin, C. F. Chabalowski, and M. J. Frisch.,  J. Phys. Chem. 98, 11623 (1994)
radial grids: 
    Treutler-Ahlrichs [JCP 102, 346 (1995); DOI:10.1063/1.469408] (M4) radial grids
    
becke partition: Becke, JCP 88, 2547 (1988); DOI:10.1063/1.454033
pruning grids: <function nwchem_prune at 0x7f9db5616ca0>
grids dens level: 3
symmetrized grids: False
atomic radii adjust function: <function treutler_atomic_radii_adjust at 0x7f9db5617380>
User specified grid scheme (99, 590)
small_rho_cutoff = 1e-07
Set gradient conv threshold to 1e-05
Initial guess from minao.
nelec by numeric integration = 145.27044077669993
    CPU time for vxc     37.53 sec, wall time     15.72 sec
E1 = -4101.610011130044  Ecoul = 1884.8406454510603  Exc = -126.16500532078797
init E= -841.632866150019
cond(S) = 33.40998101654791
    CPU time for initialize scf     47.33 sec, wall time     18.11 sec
  HOMO = -0.205879871121332  LUMO = -0.146139911109336
  mo_energy =
[-10.16935332 -10.15561643 -10.15280812 -10.15217199 -10.15133478
 -10.14358208 -10.14186872 -10.12012922 -10.11960754 -10.11867686
 -10.11485783 -10.10678484 -10.10172228 -10.10147771 -10.09621135
 -10.08737246 -10.08607189 -10.08526703 -10.08109084 -10.0802929
 -10.07435283 -10.06418279  -1.11264592  -1.08753359  -1.04532974
  -1.00806291  -0.99775596  -0.95119308  -0.9183922   -0.91482759
  -0.8786616   -0.84135767  -0.80262926  -0.75286541  -0.73851608
  -0.71852161  -0.68751     -0.66554889  -0.65358994  -0.63423798
  -0.61208731  -0.59278502  -0.58615776  -0.55006731  -0.54254139
  -0.53419413  -0.51885647  -0.5064759   -0.4926762   -0.49032559
  -0.48576914  -0.47038676  -0.46432243  -0.44738735  -0.44064631
  -0.43816796  -0.42907901  -0.42507146  -0.41944567  -0.40847692
  -0.40037652  -0.38493069  -0.37915899  -0.3617742   -0.35157885
  -0.33272339  -0.32519411  -0.3044773   -0.29436409  -0.27684891
  -0.26120498  -0.2410766   -0.20587987  -0.14613991  -0.10291309
  -0.06195834  -0.05213625  -0.02750074   0.0128177    0.03715941
   0.0541583    0.05743044   0.07889987   0.09047564   0.09430101
   0.10114612   0.14036792   0.14487495   0.16009337   0.16759042
   0.17856062   0.18601468   0.20342147   0.21199622   0.24480138
   0.24831336   0.26045136   0.27298452   0.29751109   0.31662983
   0.33935334   0.34985361   0.36535778   0.39045529   0.39742338
   0.41743571   0.43839263   0.44187785   0.4706557    0.49643366
   0.50677754   0.5136649    0.53012286   0.55825159   0.56657258
   0.59534555   0.62084094   0.72394274   0.7805572    0.80834433
   0.85986935   0.93892198   0.97944438   1.04847261]
nelec by numeric integration = 145.99999647944804
    CPU time for vxc     37.90 sec, wall time     15.76 sec
E1 = -4117.116005760889  Ecoul = 1905.4102309982688  Exc = -124.84339785934455
cycle= 1 E= -835.247667772212  delta_E= 6.39  |g|= 0.382  |ddm|= 9.35
    CPU time for cycle= 1     38.14 sec, wall time     15.80 sec
  HOMO = -0.085176843989818  LUMO = 0.00106971055252959
  mo_energy =
[-1.00965410e+01 -1.00904486e+01 -1.00294445e+01 -1.00223954e+01
 -1.00128901e+01 -1.00102347e+01 -1.00010622e+01 -9.99492087e+00
 -9.99203988e+00 -9.98241179e+00 -9.98026730e+00 -9.97939535e+00
 -9.97929901e+00 -9.97302338e+00 -9.96225161e+00 -9.96065302e+00
 -9.94560368e+00 -9.94362664e+00 -9.93608622e+00 -9.92560053e+00
 -9.92028614e+00 -9.91089858e+00 -8.52701235e-01 -8.05936347e-01
 -7.94043401e-01 -7.61418701e-01 -7.59199006e-01 -7.24370719e-01
 -7.11525230e-01 -7.01341612e-01 -6.88339187e-01 -6.73879003e-01
 -6.24361238e-01 -6.02368409e-01 -5.89044696e-01 -5.81516887e-01
 -5.42108323e-01 -5.21989201e-01 -5.07434733e-01 -4.95689004e-01
 -4.90798462e-01 -4.70218013e-01 -4.57340722e-01 -4.35567133e-01
 -4.26420143e-01 -4.15790648e-01 -4.08640157e-01 -3.99263485e-01
 -3.80379743e-01 -3.72043951e-01 -3.66755078e-01 -3.52674284e-01
 -3.49512614e-01 -3.40819824e-01 -3.28644954e-01 -3.21547539e-01
 -3.16365057e-01 -3.15239259e-01 -2.99706654e-01 -2.93454110e-01
 -2.81711225e-01 -2.67072198e-01 -2.54874289e-01 -2.50502218e-01
 -2.34085914e-01 -2.24345124e-01 -2.05521097e-01 -1.86521811e-01
 -1.84814791e-01 -1.76274051e-01 -1.59583594e-01 -1.50834340e-01
 -8.51768440e-02  1.06971055e-03  2.08101283e-02  8.55138340e-02
  1.11699756e-01  1.34407995e-01  1.67800516e-01  1.88051140e-01
  2.10869650e-01  2.21319370e-01  2.31683359e-01  2.46687739e-01
  2.58613115e-01  2.80290801e-01  2.84892656e-01  2.95543632e-01
  3.11587407e-01  3.18142530e-01  3.23124162e-01  3.45418425e-01
  3.57160484e-01  3.65625272e-01  3.79813695e-01  4.00103357e-01
  4.07280851e-01  4.14767087e-01  4.42676488e-01  4.71295513e-01
  4.85552467e-01  5.04941095e-01  5.19992680e-01  5.36180720e-01
  5.49931224e-01  5.81483357e-01  5.91276648e-01  6.08878620e-01
  6.26125247e-01  6.35675943e-01  6.63387512e-01  6.79825195e-01
  6.96797686e-01  7.08176576e-01  7.20929329e-01  7.52197624e-01
  8.03538734e-01  8.94001287e-01  9.75941694e-01  1.01153253e+00
  1.01726205e+00  1.12212908e+00  1.20401917e+00  1.25766099e+00]
nelec by numeric integration = 145.99999656358563
    CPU time for vxc     38.25 sec, wall time     15.82 sec
E1 = -4110.109273790205  Ecoul = 1898.2576891358403  Exc = -124.65658926792038
cycle= 2 E= -835.206669072533  delta_E= 0.041  |g|= 0.533  |ddm|= 1.31
    CPU time for cycle= 2     38.78 sec, wall time     15.90 sec
  HOMO = -0.10226155566937  LUMO = -0.0133289731871733
  mo_energy =
[-10.04692062 -10.03658242 -10.03227034 -10.02907021 -10.02612013
 -10.02605925 -10.02490959 -10.02309874 -10.02204351 -10.02165058
 -10.01861481 -10.00790511 -10.00724647 -10.00529821 -10.00488278
  -9.99547409  -9.9944421   -9.99376331  -9.98679761  -9.9831057
  -9.98138475  -9.96364591  -0.87074733  -0.84198007  -0.81912544
  -0.78931004  -0.77900681  -0.7529237   -0.73250207  -0.72761515
  -0.70493698  -0.6769441   -0.64445464  -0.60938415  -0.60094443
  -0.58720134  -0.56029429  -0.53853641  -0.52687522  -0.5159137
  -0.50226466  -0.48384681  -0.47361876  -0.44710657  -0.43884545
  -0.43136125  -0.41998404  -0.41509165  -0.39139313  -0.38658214
  -0.38143003  -0.37057181  -0.36044377  -0.35441332  -0.35051994
  -0.34501251  -0.33928951  -0.32771872  -0.31886522  -0.31023443
  -0.28837925  -0.28204166  -0.2812742   -0.27590094  -0.25399885
  -0.24668909  -0.22581777  -0.2059749   -0.20234066  -0.18604515
  -0.1737083   -0.14340609  -0.10226156  -0.01332897   0.03090782
   0.07572188   0.08818941   0.11413538   0.15382472   0.18520651
   0.20098104   0.21249665   0.2178505    0.22180592   0.23505737
   0.24688154   0.27330149   0.28550348   0.29946073   0.3069749
   0.32704609   0.32909762   0.33444907   0.35263879   0.38492638
   0.3868646    0.39916171   0.41175752   0.4304695    0.45573233
   0.47529979   0.48526396   0.49847656   0.52057429   0.52824002
   0.55735702   0.57568442   0.58886615   0.61263258   0.6376393
   0.6457504    0.65900513   0.6712779    0.69988505   0.71020111
   0.73779867   0.77154263   0.86590122   0.92670384   0.95791358
   0.99342669   1.08903069   1.14207884   1.23065852]
nelec by numeric integration = 145.99999644699628
    CPU time for vxc     38.50 sec, wall time     15.91 sec
E1 = -4113.375912238725  Ecoul = 1901.4840291643327  Exc = -124.70451336752632
cycle= 3 E= -835.294891592165  delta_E= -0.0882  |g|= 0.16  |ddm|= 0.907
    CPU time for cycle= 3     38.91 sec, wall time     15.97 sec
  HOMO = -0.106715790329984  LUMO = -0.0180365986555193
  mo_energy =
[-10.05070839 -10.03208447 -10.03045224 -10.02948734 -10.02892201
 -10.0237387  -10.02349907 -10.02312264 -10.02300188 -10.02208602
 -10.0218209  -10.02054281 -10.01921394 -10.01908907 -10.0154565
 -10.01021634 -10.00775009 -10.00755978 -10.00624843 -10.00397923
  -9.99556175  -9.99362129  -0.87188126  -0.84520815  -0.8219966
  -0.79671561  -0.79038675  -0.75577012  -0.73380957  -0.73004691
  -0.70845681  -0.68376719  -0.64677616  -0.61530267  -0.60437917
  -0.59051141  -0.56360098  -0.54169506  -0.52766861  -0.5192392
  -0.50739806  -0.48766349  -0.47770697  -0.44836255  -0.44566633
  -0.43346186  -0.42588139  -0.41658199  -0.39446667  -0.39316779
  -0.38418563  -0.37218138  -0.36318136  -0.35773976  -0.35640625
  -0.34932642  -0.34249924  -0.33382633  -0.32264756  -0.31434294
  -0.30113107  -0.29193293  -0.28371055  -0.27435776  -0.25801793
  -0.24685545  -0.22869541  -0.2081156   -0.20419015  -0.19158672
  -0.18084066  -0.15419539  -0.10671579  -0.0180366    0.02024641
   0.07408577   0.08464238   0.11066388   0.15005312   0.17933893
   0.18748941   0.20147984   0.21669345   0.22338844   0.23483895
   0.24235432   0.27391685   0.28386111   0.29598159   0.30381468
   0.31824874   0.3266023    0.33351727   0.35113607   0.36773776
   0.38715288   0.39398277   0.3970502    0.42939138   0.45479879
   0.47566344   0.48193803   0.49792043   0.51947191   0.52801225
   0.5553122    0.5731556    0.57657694   0.60939345   0.63088504
   0.63983287   0.65153863   0.66802529   0.69608483   0.7070253
   0.7362488    0.7666957    0.86924959   0.92713465   0.9585235
   0.99285778   1.08583181   1.13602244   1.20680553]
nelec by numeric integration = 145.99999648399321
    CPU time for vxc     38.38 sec, wall time     15.87 sec
E1 = -4113.208553118611  Ecoul = 1901.3238835924842  Exc = -124.71882135320732
cycle= 4 E= -835.301986029582  delta_E= -0.00709  |g|= 0.0781  |ddm|= 0.322
    CPU time for cycle= 4     38.86 sec, wall time     15.95 sec
  HOMO = -0.108732178703182  LUMO = -0.0201913668729038
  mo_energy =
[-10.05345433 -10.04061805 -10.03563221 -10.03393874 -10.03296087
 -10.03281147 -10.02931439 -10.02839423 -10.0245256  -10.02315873
 -10.02231293 -10.02082148 -10.01861476 -10.01558926 -10.01235085
 -10.01152815 -10.00902562 -10.00660756 -10.00584555 -10.00579972
 -10.00489215  -9.99671186  -0.87671559  -0.84432921  -0.82531028
  -0.79550692  -0.79219754  -0.75695955  -0.73667098  -0.73152395
  -0.71046636  -0.68560804  -0.64833673  -0.61632425  -0.60766278
  -0.59370885  -0.56462897  -0.54391424  -0.52750025  -0.52014312
  -0.50851827  -0.48828584  -0.47923869  -0.4496724   -0.44693273
  -0.43493555  -0.42720591  -0.41842933  -0.39581886  -0.39487815
  -0.38794075  -0.37356092  -0.36358932  -0.35880198  -0.35686394
  -0.34927513  -0.34277671  -0.3361631   -0.32461222  -0.31573876
  -0.3010199   -0.29362511  -0.28587218  -0.2779467   -0.26007554
  -0.24979368  -0.23109638  -0.20971227  -0.20665346  -0.19321807
  -0.18326725  -0.1556415   -0.10873218  -0.02019137   0.01873347
   0.06898593   0.08273578   0.10829765   0.14724537   0.1787089
   0.1881779    0.20122053   0.21431388   0.22072726   0.23275626
   0.24124895   0.27046369   0.28259108   0.29404944   0.30009239
   0.31680286   0.32632971   0.33117466   0.34860012   0.37053713
   0.386669     0.39463639   0.39793555   0.42540031   0.45389366
   0.47328253   0.48062344   0.49608434   0.51792421   0.52587064
   0.55431616   0.57468296   0.57636351   0.60653645   0.63115201
   0.63812674   0.65051666   0.665171     0.69505582   0.69962551
   0.73028522   0.765283     0.86306538   0.9264011    0.95829705
   0.98962714   1.08294803   1.13865986   1.20956446]
nelec by numeric integration = 145.99999648398483
    CPU time for vxc     38.77 sec, wall time     15.96 sec
E1 = -4113.568699418877  Ecoul = 1901.6847814118455  Exc = -124.72145961939253
cycle= 5 E= -835.303872776672  delta_E= -0.00189  |g|= 0.027  |ddm|= 0.135
    CPU time for cycle= 5     39.17 sec, wall time     16.03 sec
  HOMO = -0.10832557038755  LUMO = -0.0193989552426205
  mo_energy =
[-10.05083803 -10.03581188 -10.03547522 -10.03162253 -10.03116367
 -10.03092265 -10.02905925 -10.02594837 -10.02524647 -10.02380262
 -10.02333194 -10.01638782 -10.01467158 -10.01404065 -10.01368933
 -10.01067666 -10.00845218 -10.00779072 -10.0077232  -10.00635166
 -10.00259488  -9.99419817  -0.87446187  -0.84470206  -0.82397739
  -0.79362623  -0.79139224  -0.75678206  -0.73578039  -0.73158033
  -0.70974689  -0.68447533  -0.64799478  -0.6156434   -0.60636534
  -0.5924465   -0.56430553  -0.54307052  -0.52804102  -0.51958765
  -0.50758035  -0.48796746  -0.4783534   -0.44960379  -0.44597652
  -0.43439723  -0.42587625  -0.41786647  -0.39462278  -0.39428559
  -0.38632433  -0.37315428  -0.36362271  -0.35850474  -0.35605105
  -0.34925726  -0.3430785   -0.33490445  -0.32384427  -0.31531058
  -0.29883545  -0.29223625  -0.2855324   -0.27747006  -0.25979983
  -0.24940364  -0.23041596  -0.2096598   -0.20642104  -0.1922829
  -0.18225249  -0.15475839  -0.10832557  -0.01939896   0.019852
   0.07053042   0.08304122   0.10898895   0.14781273   0.17947064
   0.18973443   0.20282132   0.21515694   0.22097748   0.23304334
   0.24157145   0.27123364   0.28307828   0.29506593   0.3017834
   0.31848364   0.32605193   0.331792     0.34929572   0.37157863
   0.38598345   0.39492262   0.39897599   0.42662836   0.45393465
   0.47380345   0.48119634   0.4963615    0.51869119   0.52663847
   0.554509     0.57526028   0.57715448   0.60711892   0.63168636
   0.63851071   0.65105626   0.66590413   0.69486788   0.70211494
   0.73221391   0.76602333   0.86494161   0.92566139   0.95734764
   0.9902936    1.08485588   1.13855384   1.21270377]
nelec by numeric integration = 145.99999647913714
    CPU time for vxc     38.36 sec, wall time     15.89 sec
E1 = -4113.469551193585  Ecoul = 1901.5828293079967  Exc = -124.71888018339374
cycle= 6 E= -835.304097219229  delta_E= -0.000224  |g|= 0.00996  |ddm|= 0.0464
    CPU time for cycle= 6     38.76 sec, wall time     15.96 sec
  HOMO = -0.107934266793822  LUMO = -0.0190594917678137
  mo_energy =
[-10.05128758 -10.03474004 -10.03440273 -10.03126567 -10.0304639
 -10.03018462 -10.02919101 -10.0258266  -10.02492019 -10.0228564
 -10.02198535 -10.01855893 -10.01464552 -10.01410412 -10.01257888
 -10.00856248 -10.00774203 -10.00685808 -10.006541   -10.00532492
 -10.00153186  -9.99469931  -0.87437496  -0.84419045  -0.82360607
  -0.7933397   -0.79101758  -0.75629806  -0.73540888  -0.73092669
  -0.70940878  -0.68411945  -0.64749753  -0.61539528  -0.60592674
  -0.59218736  -0.5638637   -0.54280424  -0.52758965  -0.51929184
  -0.50737822  -0.48753561  -0.47810807  -0.44917291  -0.44564715
  -0.43408292  -0.42576608  -0.4175343   -0.39442115  -0.39404658
  -0.38618752  -0.37286649  -0.36320405  -0.35822056  -0.35584747
  -0.34898811  -0.34265792  -0.33476194  -0.32353352  -0.31503406
  -0.29875303  -0.29213674  -0.28505074  -0.27720152  -0.25929915
  -0.2490217   -0.23007993  -0.20907303  -0.20598045  -0.19198925
  -0.18192504  -0.15445685  -0.10793427  -0.01905949   0.02024473
   0.07097192   0.08365612   0.10933899   0.1483481    0.1798891
   0.18990731   0.20304802   0.21546441   0.22119633   0.23342533
   0.24200809   0.27143771   0.28326811   0.29512959   0.30177671
   0.31862012   0.32655782   0.33215583   0.34955173   0.37175654
   0.38661854   0.39525172   0.39914864   0.42684733   0.45432042
   0.47423043   0.48138104   0.49680817   0.51882796   0.5268684
   0.55493638   0.57578189   0.57732825   0.60765209   0.63218281
   0.63895187   0.65148617   0.66625581   0.69545589   0.70268284
   0.7325617    0.76646836   0.86506685   0.92647875   0.95822477
   0.99088922   1.08478838   1.13875574   1.21270049]
nelec by numeric integration = 145.99999648033904
    CPU time for vxc     38.38 sec, wall time     15.94 sec
E1 = -4113.442974488754  Ecoul = 1901.5554178430555  Exc = -124.7180764108214
cycle= 7 E= -835.304128206767  delta_E= -3.1e-05  |g|= 0.00277  |ddm|= 0.017
    CPU time for cycle= 7     38.82 sec, wall time     16.01 sec
  HOMO = -0.107847169300572  LUMO = -0.0189368980033896
  mo_energy =
[-10.05124561 -10.03487668 -10.03426569 -10.03107937 -10.03027744
 -10.03017137 -10.02890148 -10.02578166 -10.02451138 -10.02294808
 -10.02163944 -10.01784946 -10.01497235 -10.01424695 -10.01257075
 -10.00879597 -10.00806888 -10.00657306 -10.00627702 -10.00551651
 -10.00191461  -9.99463458  -0.87428402  -0.84419048  -0.82352756
  -0.79343989  -0.79102594  -0.75620908  -0.73533544  -0.73089342
  -0.70928204  -0.68405609  -0.64754256  -0.61524158  -0.60592814
  -0.59210507  -0.56384919  -0.54267853  -0.52760829  -0.51929102
  -0.50733821  -0.48749616  -0.47808258  -0.44910225  -0.44565656
  -0.43400068  -0.42577925  -0.41763331  -0.39431478  -0.39404682
  -0.38610275  -0.37285005  -0.36319287  -0.35814328  -0.35584216
  -0.34896573  -0.342587    -0.3346638   -0.32346949  -0.31494897
  -0.29885296  -0.29209212  -0.28501277  -0.27710718  -0.25916368
  -0.24897314  -0.23002222  -0.20907214  -0.20591403  -0.19199299
  -0.18191279  -0.15440704  -0.10784717  -0.0189369    0.02031631
   0.0710512    0.08363017   0.10943812   0.14845722   0.17990639
   0.18982116   0.20298704   0.21553551   0.22127512   0.23350477
   0.24204344   0.2715953    0.28336605   0.29523955   0.30191847
   0.31860408   0.32658377   0.33204371   0.34969715   0.37166548
   0.38664433   0.39545366   0.39906891   0.42701156   0.45431075
   0.4741338    0.48152757   0.49685703   0.51880522   0.52692391
   0.55490952   0.57577565   0.5772306    0.60781201   0.63219704
   0.63908843   0.6515309    0.66648928   0.69557091   0.70268007
   0.73269901   0.76637586   0.86523274   0.92650206   0.95822017
   0.99096181   1.08488013   1.13871897   1.21244936]
nelec by numeric integration = 145.99999648047955
    CPU time for vxc     37.96 sec, wall time     15.89 sec
E1 = -4113.4285965702065  Ecoul = 1901.541037935631  Exc = -124.71807615946805
cycle= 8 E= -835.304129944291  delta_E= -1.74e-06  |g|= 0.00187  |ddm|= 0.0077
    CPU time for cycle= 8     38.35 sec, wall time     15.96 sec
  HOMO = -0.107862969796117  LUMO = -0.0189562624622466
  mo_energy =
[-10.05125797 -10.03498443 -10.03428821 -10.03105739 -10.03033352
 -10.03025625 -10.02900567 -10.02566852 -10.0245824  -10.0229332
 -10.02181355 -10.0180148  -10.01508461 -10.01418934 -10.01252618
 -10.008744   -10.00818568 -10.00664511 -10.0065718  -10.0055142
 -10.00156042  -9.99443577  -0.87432115  -0.84416398  -0.82356477
  -0.79349383  -0.79105979  -0.7562443   -0.73535086  -0.73089138
  -0.70931475  -0.68408303  -0.64749068  -0.61529124  -0.60595486
  -0.59213816  -0.56386126  -0.54273411  -0.52757908  -0.51928167
  -0.50735914  -0.48753449  -0.47810661  -0.44912509  -0.44568668
  -0.43403237  -0.42581882  -0.41755946  -0.3943513   -0.39408386
  -0.38613913  -0.37285082  -0.36317435  -0.35816903  -0.35584941
  -0.348961    -0.34261044  -0.33470746  -0.32348509  -0.31494996
  -0.29891349  -0.29213942  -0.28502435  -0.2771058   -0.25922378
  -0.24896757  -0.23001601  -0.20905692  -0.20593602  -0.19200816
  -0.18194782  -0.15443418  -0.10786297  -0.01895626   0.02029879
   0.07100424   0.08366346   0.10942361   0.14841436   0.17986919
   0.18977596   0.20293988   0.21551829   0.22127309   0.23347879
   0.24203656   0.27155857   0.28334804   0.29520802   0.30187277
   0.31855888   0.32658828   0.33215651   0.34965511   0.37162656
   0.38663812   0.39536498   0.39902384   0.42695147   0.45435039
   0.47420703   0.48150938   0.49683597   0.51885941   0.5269086
   0.55495769   0.5757496    0.57718311   0.60773883   0.63219027
   0.63904339   0.65152655   0.66639761   0.69555135   0.70262219
   0.73262956   0.76647666   0.86520162   0.92648569   0.95821685
   0.99092469   1.08486767   1.13878545   1.2123591 ]
nelec by numeric integration = 145.9999964802137
    CPU time for vxc     38.96 sec, wall time     16.01 sec
E1 = -4113.43873197191  Ecoul = 1901.5512051029455  Exc = -124.71810926888917
cycle= 9 E= -835.304131288101  delta_E= -1.34e-06  |g|= 0.000517  |ddm|= 0.00393
    CPU time for cycle= 9     39.49 sec, wall time     16.10 sec
  HOMO = -0.107877675971561  LUMO = -0.0189662316096197
  mo_energy =
[-10.05122343 -10.03487844 -10.03431027 -10.03108172 -10.03030959
 -10.03023197 -10.029014   -10.02567932 -10.02463527 -10.0229303
 -10.02182643 -10.01801219 -10.01502678 -10.0142074  -10.01253431
 -10.00875118 -10.00813282 -10.00662838 -10.00656178 -10.0054925
 -10.00169661  -9.99451781  -0.87430822  -0.8441772   -0.82355955
  -0.79347127  -0.79104828  -0.75624085  -0.73535411  -0.73090391
  -0.70932242  -0.68408113  -0.64751583  -0.61529623  -0.60594425
  -0.5921354   -0.56386486  -0.5427291   -0.52758706  -0.51929057
  -0.50735762  -0.48753649  -0.47810008  -0.4491268   -0.44567832
  -0.43403611  -0.42580634  -0.4175913   -0.39433976  -0.3940709
  -0.38612797  -0.37285126  -0.36318459  -0.35816741  -0.35585117
  -0.34896156  -0.34261359  -0.33469516  -0.32348511  -0.31496548
  -0.29888203  -0.29211814  -0.28502248  -0.27709994  -0.25922117
  -0.24897439  -0.23002557  -0.20906798  -0.20593396  -0.19199961
  -0.18193168  -0.15443584  -0.10787768  -0.01896623   0.02030386
   0.07101382   0.08365042   0.10941681   0.14841334   0.17988219
   0.18980842   0.2029624    0.21553252   0.22128825   0.23349199
   0.24203562   0.27157148   0.2833512    0.29521698   0.30188579
   0.31858795   0.32658456   0.3321142    0.34966223   0.37164333
   0.38663264   0.39536968   0.39903142   0.42695187   0.45432905
   0.47416832   0.481496     0.49683131   0.51883175   0.52690376
   0.55493388   0.5757543    0.57719729   0.60773346   0.63218589
   0.63904085   0.651517     0.66639775   0.69553631   0.70265951
   0.73264251   0.7664356    0.86520143   0.92648917   0.95822025
   0.99091967   1.08487235   1.13876847   1.21240599]
nelec by numeric integration = 145.99999648024382
    CPU time for vxc     38.79 sec, wall time     16.02 sec
E1 = -4113.436834487208  Ecoul = 1901.5493345220657  Exc = -124.71813626932763
cycle= 10 E= -835.304131384717  delta_E= -9.66e-08  |g|= 0.000178  |ddm|= 0.00107
    CPU time for cycle= 10     39.20 sec, wall time     16.09 sec
  HOMO = -0.107881156483925  LUMO = -0.0189687023205309
  mo_energy =
[-10.05124557 -10.0349233  -10.03432629 -10.03111006 -10.03033369
 -10.03025077 -10.0290115  -10.02571131 -10.0246263  -10.0229372
 -10.02181764 -10.01802483 -10.0150131  -10.0142135  -10.01253659
 -10.00877122 -10.00811527 -10.00662171 -10.00659054 -10.00551072
 -10.00166219  -9.99451757  -0.87432226  -0.84418662  -0.82357106
  -0.79346985  -0.79105744  -0.75624913  -0.73536339  -0.73091077
  -0.70932736  -0.68408829  -0.64751613  -0.61530054  -0.60595478
  -0.59214228  -0.56387282  -0.54273513  -0.52759373  -0.51929543
  -0.50736628  -0.48754003  -0.47810731  -0.44913295  -0.44568255
  -0.43404027  -0.42580762  -0.41758741  -0.39434643  -0.39407623
  -0.38613946  -0.37285679  -0.36319197  -0.35817262  -0.35585274
  -0.34896677  -0.34261853  -0.33470419  -0.32349402  -0.31496715
  -0.29888137  -0.29212208  -0.28503369  -0.2771094   -0.25922816
  -0.24898026  -0.23003409  -0.20907575  -0.20594117  -0.19200487
  -0.18193947  -0.15444271  -0.10788116  -0.0189687    0.02029811
   0.07100441   0.08364324   0.10940863   0.14840591   0.17987462
   0.18980679   0.20296097   0.2155209    0.22127783   0.23348089
   0.24202568   0.27156008   0.28334443   0.29521046   0.30187549
   0.31858205   0.32657459   0.33211787   0.34965187   0.37164592
   0.38662624   0.39536617   0.39903714   0.4269481    0.45432594
   0.47417356   0.48149349   0.49682417   0.51883181   0.52689412
   0.55493185   0.5757454    0.57720058   0.60773256   0.63217937
   0.63903294   0.65150998   0.66639245   0.69553206   0.70263885
   0.73263254   0.76643628   0.86519065   0.92647496   0.95820438
   0.99090806   1.08485329   1.138756     1.21241589]
nelec by numeric integration = 145.9999964802773
    CPU time for vxc     38.84 sec, wall time     15.98 sec
E1 = -4113.437951446836  Ecoul = 1901.5504596240294  Exc = -124.71814442298185
cycle= 11 E= -835.304131396036  delta_E= -1.13e-08  |g|= 4.76e-05  |ddm|= 0.000306
    CPU time for cycle= 11     39.46 sec, wall time     16.08 sec
  HOMO = -0.107881034173034  LUMO = -0.0189675416896763
  mo_energy =
[-10.05124182 -10.03491319 -10.03431596 -10.03109841 -10.03032721
 -10.03025049 -10.02901302 -10.0257049  -10.02463048 -10.02293525
 -10.02182147 -10.01801904 -10.01501544 -10.01420722 -10.01253088
 -10.00876289 -10.00811794 -10.00662552 -10.00658379 -10.00550623
 -10.001668    -9.99451336  -0.87431918  -0.84418397  -0.82356791
  -0.79346901  -0.7910545   -0.75624696  -0.73536056  -0.73090823
  -0.7093254   -0.68408524  -0.64751474  -0.61529892  -0.60595147
  -0.59213992  -0.56386981  -0.54273406  -0.52759228  -0.51929293
  -0.5073626   -0.48753804  -0.47810498  -0.44913185  -0.44568001
  -0.43403914  -0.42580597  -0.41758669  -0.39434533  -0.394075
  -0.38613678  -0.37285543  -0.36318966  -0.3581717   -0.35585109
  -0.34896549  -0.34261771  -0.33470186  -0.32349169  -0.31496689
  -0.29888086  -0.29212184  -0.28503094  -0.2771098   -0.25922653
  -0.24897982  -0.23003126  -0.20907339  -0.20594002  -0.19200324
  -0.1819376   -0.15444022  -0.10788103  -0.01896754   0.02030133
   0.0710068    0.08364643   0.10941142   0.14840803   0.17987688
   0.1898084    0.20296207   0.21552212   0.22127739   0.23348174
   0.24202831   0.27156023   0.28334495   0.29521088   0.30187701
   0.31858335   0.32657665   0.3321187    0.34965287   0.37164898
   0.3866274    0.39536552   0.39904028   0.42694868   0.45432769
   0.47417423   0.48149393   0.49682624   0.51883324   0.52689707
   0.55493375   0.57574876   0.57720242   0.6077325    0.63218365
   0.63903545   0.65151343   0.66639339   0.69553373   0.70264485
   0.73263421   0.76643834   0.86519243   0.92647853   0.95820873
   0.99091358   1.08485859   1.13875969   1.21241509]
nelec by numeric integration = 145.99999648026332
    CPU time for vxc     38.71 sec, wall time     15.96 sec
E1 = -4113.437727493918  Ecoul = 1901.5502298096837  Exc = -124.71813856262843
cycle= 12 E= -835.30413139711  delta_E= -1.07e-09  |g|= 1.16e-05  |ddm|= 0.000117
    CPU time for cycle= 12     39.28 sec, wall time     16.05 sec
  HOMO = -0.107879925653019  LUMO = -0.0189661293399485
  mo_energy =
[-10.05124013 -10.03491463 -10.03431899 -10.03109639 -10.03032714
 -10.03024922 -10.02901145 -10.02570105 -10.02463114 -10.02293529
 -10.0218191  -10.01801887 -10.01501351 -10.01420659 -10.01253042
 -10.008765   -10.00811638 -10.00662062 -10.00658268 -10.00550634
 -10.00166485  -9.99451158  -0.87431839  -0.84418274  -0.82356725
  -0.79346825  -0.79105414  -0.7562465   -0.7353603   -0.73090738
  -0.70932473  -0.68408458  -0.64751387  -0.61529798  -0.60595125
  -0.59213975  -0.56386961  -0.54273323  -0.52759169  -0.51929262
  -0.50736243  -0.48753759  -0.47810468  -0.44913131  -0.44567979
  -0.43403847  -0.42580588  -0.41758617  -0.39434462  -0.39407441
  -0.38613607  -0.37285508  -0.36318879  -0.35817099  -0.35585065
  -0.34896482  -0.34261691  -0.33470124  -0.32349085  -0.31496546
  -0.29888016  -0.29212118  -0.2850305   -0.27710907  -0.25922586
  -0.24897907  -0.23003094  -0.2090728   -0.20593939  -0.19200275
  -0.18193716  -0.15443981  -0.10787993  -0.01896613   0.02030185
   0.07100699   0.08364699   0.10941182   0.14840875   0.17987749
   0.18980878   0.20296272   0.21552283   0.22127823   0.23348253
   0.24202914   0.27156121   0.2833458    0.29521161   0.30187784
   0.31858389   0.32657758   0.33211897   0.34965377   0.37164888
   0.38662788   0.39536666   0.39903994   0.4269492    0.45432791
   0.4741747    0.48149553   0.49682684   0.51883387   0.52689756
   0.55493444   0.57574874   0.57720253   0.60773381   0.63218386
   0.63903591   0.65151382   0.66639458   0.69553491   0.70264413
   0.73263501   0.76643963   0.86519302   0.92647885   0.95820901
   0.99091236   1.08485972   1.13876154   1.21241618]
nelec by numeric integration = 145.99999648026494
    CPU time for vxc     38.58 sec, wall time     15.90 sec
E1 = -4113.4376709456465  Ecoul = 1901.5501723319728  Exc = -124.71813763323466
cycle= 13 E= -835.304131397155  delta_E= -4.55e-11  |g|= 9.94e-06  |ddm|= 3.76e-05
    CPU time for cycle= 13     39.27 sec, wall time     16.00 sec
  HOMO = -0.107881101447803  LUMO = -0.0189671220394057
  mo_energy =
[-10.05124217 -10.0349127  -10.03431577 -10.03110002 -10.0303267
 -10.03024883 -10.02901112 -10.0257063  -10.02462841 -10.02293528
 -10.02182136 -10.0180165  -10.01501555 -10.01420917 -10.01253108
 -10.0087618  -10.00811792 -10.00662678 -10.00658378 -10.00550571
 -10.00166772  -9.99451435  -0.87431888  -0.84418455  -0.82356753
  -0.79346906  -0.79105448  -0.75624661  -0.73536009  -0.73090835
  -0.70932515  -0.68408504  -0.64751492  -0.61529875  -0.60595143
  -0.59213946  -0.56386986  -0.54273374  -0.5275926   -0.51929304
  -0.50736263  -0.48753817  -0.47810491  -0.44913167  -0.44567993
  -0.43403903  -0.42580592  -0.41758702  -0.39434478  -0.39407481
  -0.38613653  -0.37285531  -0.36318986  -0.3581715   -0.35585102
  -0.34896552  -0.34261778  -0.33470147  -0.32349143  -0.31496694
  -0.29888073  -0.29212117  -0.28503072  -0.27710888  -0.25922623
  -0.24897946  -0.23003099  -0.20907349  -0.20593981  -0.19200314
  -0.1819374   -0.15444009  -0.1078811   -0.01896712   0.02030166
   0.07100726   0.08364635   0.10941178   0.14840828   0.17987701
   0.18980841   0.20296217   0.21552267   0.22127815   0.23348225
   0.24202832   0.27156107   0.28334528   0.29521152   0.30187763
   0.31858362   0.32657651   0.33211837   0.3496536    0.37164857
   0.38662728   0.39536584   0.39903974   0.4269494    0.45432752
   0.47417391   0.4814939    0.49682623   0.51883286   0.52689709
   0.55493354   0.57574878   0.57720208   0.60773272   0.63218345
   0.63903594   0.65151345   0.66639406   0.69553365   0.7026452
   0.73263532   0.7664378    0.86519304   0.92647883   0.95820897
   0.99091382   1.08485815   1.1387584    1.21241493]
nelec by numeric integration = 145.99999648026312
    CPU time for vxc     38.40 sec, wall time     15.86 sec
E1 = -4113.437704303475  Ecoul = 1901.550207588739  Exc = -124.71813953210503
Extra cycle  E= -835.304131397088  delta_E= 6.73e-11  |g|= 1.7e-05  |ddm|= 3.99e-05
    CPU time for scf_cycle    592.70 sec, wall time    241.93 sec
    CPU time for SCF    592.70 sec, wall time    241.93 sec
converged SCF energy = -835.304131397088
nelec by numeric integration = 145.99999648026312
    CPU time for vxc     38.05 sec, wall time     15.85 sec
 ** Mulliken pop  **
pop of  0 C 1s            1.99089
pop of  0 C 2s            1.10834
pop of  0 C 2px           0.99843
pop of  0 C 2py           0.96370
pop of  0 C 2pz           0.94872
pop of  1 C 1s            1.99134
pop of  1 C 2s            1.05918
pop of  1 C 2px           1.01155
pop of  1 C 2py           1.01107
pop of  1 C 2pz           0.95005
pop of  2 C 1s            1.99102
pop of  2 C 2s            1.18219
pop of  2 C 2px           0.96224
pop of  2 C 2py           0.94737
pop of  2 C 2pz           0.97422
pop of  3 C 1s            1.99118
pop of  3 C 2s            1.10053
pop of  3 C 2px           1.01197
pop of  3 C 2py           0.96899
pop of  3 C 2pz           0.98343
pop of  4 C 1s            1.99125
pop of  4 C 2s            1.03949
pop of  4 C 2px           1.03055
pop of  4 C 2py           1.03086
pop of  4 C 2pz           1.01793
pop of  5 C 1s            1.99109
pop of  5 C 2s            1.18695
pop of  5 C 2px           0.98606
pop of  5 C 2py           0.91470
pop of  5 C 2pz           0.97250
pop of  6 C 1s            1.99115
pop of  6 C 2s            1.19501
pop of  6 C 2px           0.95978
pop of  6 C 2py           0.95908
pop of  6 C 2pz           0.94799
pop of  7 C 1s            1.99114
pop of  7 C 2s            1.18997
pop of  7 C 2px           0.99502
pop of  7 C 2py           0.98281
pop of  7 C 2pz           0.93635
pop of  8 C 1s            1.99091
pop of  8 C 2s            1.09815
pop of  8 C 2px           0.99613
pop of  8 C 2py           0.97862
pop of  8 C 2pz           0.93442
pop of  9 C 1s            1.99087
pop of  9 C 2s            1.16244
pop of  9 C 2px           0.99557
pop of  9 C 2py           0.93683
pop of  9 C 2pz           0.92785
pop of  10 C 1s           1.99123
pop of  10 C 2s           1.12127
pop of  10 C 2px          1.01851
pop of  10 C 2py          0.96606
pop of  10 C 2pz          1.01455
pop of  11 C 1s           1.99133
pop of  11 C 2s           1.21955
pop of  11 C 2px          0.95263
pop of  11 C 2py          0.92606
pop of  11 C 2pz          0.94127
pop of  12 C 1s           1.99105
pop of  12 C 2s           1.14283
pop of  12 C 2px          0.95431
pop of  12 C 2py          0.92007
pop of  12 C 2pz          0.95392
pop of  13 C 1s           1.99056
pop of  13 C 2s           1.12522
pop of  13 C 2px          1.02961
pop of  13 C 2py          0.93608
pop of  13 C 2pz          0.95012
pop of  14 C 1s           1.99121
pop of  14 C 2s           1.05530
pop of  14 C 2px          1.09292
pop of  14 C 2py          0.98726
pop of  14 C 2pz          1.07960
pop of  15 C 1s           1.99155
pop of  15 C 2s           1.16750
pop of  15 C 2px          0.93657
pop of  15 C 2py          0.94423
pop of  15 C 2pz          0.94266
pop of  16 C 1s           1.99159
pop of  16 C 2s           1.19233
pop of  16 C 2px          0.91730
pop of  16 C 2py          0.91537
pop of  16 C 2pz          0.90139
pop of  17 C 1s           1.99080
pop of  17 C 2s           1.01011
pop of  17 C 2px          1.03664
pop of  17 C 2py          1.04498
pop of  17 C 2pz          0.98345
pop of  18 C 1s           1.99277
pop of  18 C 2s           1.11807
pop of  18 C 2px          0.97282
pop of  18 C 2py          0.99547
pop of  18 C 2pz          0.98640
pop of  19 C 1s           1.99097
pop of  19 C 2s           1.03486
pop of  19 C 2px          1.04162
pop of  19 C 2py          0.99718
pop of  19 C 2pz          1.05020
pop of  20 C 1s           1.99207
pop of  20 C 2s           1.11293
pop of  20 C 2px          1.00693
pop of  20 C 2py          1.04912
pop of  20 C 2pz          0.99166
pop of  21 C 1s           1.99164
pop of  21 C 2s           1.22348
pop of  21 C 2px          0.94791
pop of  21 C 2py          0.95484
pop of  21 C 2pz          0.89537
pop of  22 H 1s           0.92528
pop of  23 H 1s           0.95102
pop of  24 H 1s           0.93236
pop of  25 H 1s           0.92245
pop of  26 H 1s           0.91468
pop of  27 H 1s           0.91324
pop of  28 H 1s           0.89186
pop of  29 H 1s           0.93334
pop of  30 H 1s           0.86786
pop of  31 H 1s           0.97452
pop of  32 H 1s           0.95042
pop of  33 H 1s           0.88719
pop of  34 H 1s           0.90209
pop of  35 H 1s           0.91050
 ** Mulliken atomic charges  **
charge of    0C =     -0.01010
charge of    1C =     -0.02320
charge of    2C =     -0.05704
charge of    3C =     -0.05609
charge of    4C =     -0.11008
charge of    5C =     -0.05131
charge of    6C =     -0.05301
charge of    7C =     -0.09528
charge of    8C =      0.00177
charge of    9C =     -0.01355
charge of   10C =     -0.11162
charge of   11C =     -0.03084
charge of   12C =      0.03780
charge of   13C =     -0.03159
charge of   14C =     -0.20629
charge of   15C =      0.01750
charge of   16C =      0.08201
charge of   17C =     -0.06598
charge of   18C =     -0.06551
charge of   19C =     -0.11483
charge of   20C =     -0.15271
charge of   21C =     -0.01323
charge of   22H =      0.07472
charge of   23H =      0.04898
charge of   24H =      0.06764
charge of   25H =      0.07755
charge of   26H =      0.08532
charge of   27H =      0.08676
charge of   28H =      0.10814
charge of   29H =      0.06666
charge of   30H =      0.13214
charge of   31H =      0.02548
charge of   32H =      0.04958
charge of   33H =      0.11281
charge of   34H =      0.09791
charge of   35H =      0.08950
Dipole moment(X, Y, Z, Debye):  0.09791, -0.70031, -0.88114
nelec by numeric integration = 145.99999648026312
    CPU time for vxc     38.07 sec, wall time     15.86 sec
E1 = -4113.437704303475  Ecoul = 1901.5502075887389  Exc = -124.71813953210504
nelec by numeric integration = 145.99999648026312
    CPU time for vxc     38.03 sec, wall time     15.78 sec
E1 = -4113.437704303475  Ecoul = 1901.5502075887387  Exc = -124.71813953210503
