System: uname_result(system='Linux', node='cosmopc18', release='5.15.0-97-generic', version='#107-Ubuntu SMP Wed Feb 7 13:26:48 UTC 2024', machine='x86_64')  Threads 4
Python 3.11.8 (main, Feb 26 2024, 21:39:34) [GCC 11.2.0]
numpy 1.26.4  scipy 1.11.4
Date: Tue Apr  9 16:28:19 2024
PySCF version 2.3.0
PySCF path  /home/saade/miniconda3/envs/tutorial/lib/python3.11/site-packages/pyscf

[ENV] PYSCFAD_BACKEND torch
[CONFIG] conf_file None
[INPUT] verbose = 5
[INPUT] max_memory = 4000 
[INPUT] num. atoms = 36
[INPUT] num. electrons = 146
[INPUT] charge = 0
[INPUT] spin (= nelec alpha-beta = 2S) = 0
[INPUT] symmetry False subgroup None
[INPUT] Mole.unit = angstrom
[INPUT] Symbol           X                Y                Z      unit          X                Y                Z       unit  Magmom
[INPUT]  1 C      0.083563000000   3.679651000000   0.655801000000 AA    0.157911184147   6.953532623982   1.239284282216 Bohr   0.0
[INPUT]  2 C      0.215868000000   3.672529000000  -0.442279000000 AA    0.407931399058   6.940073994523  -0.835786180647 Bohr   0.0
[INPUT]  3 C     -0.016917000000   4.674316000000   1.214762000000 AA   -0.031968496849   8.833177059672   2.295567486529 Bohr   0.0
[INPUT]  4 C     -0.065549000000   2.520973000000   1.434557000000 AA   -0.123869657739   4.763948537423   2.710919840078 Bohr   0.0
[INPUT]  5 C      0.122952000000   4.806740000000  -1.358734000000 AA    0.232345606468   9.083422151992  -2.567635136135 Bohr   0.0
[INPUT]  6 C     -0.207151000000   2.673853000000  -1.460029000000 AA   -0.391458656430   5.052849867347  -2.759054943923 Bohr   0.0
[INPUT]  7 C     -0.006967000000   6.304058000000  -0.957362000000 AA   -0.013165721910  11.912943093373  -1.809151982066 Bohr   0.0
[INPUT]  8 C      0.198425000000   6.308809000000   0.750405000000 AA    0.374968906267  11.921921182191   1.418059932504 Bohr   0.0
[INPUT]  9 C     -0.130341000000   1.190243000000   0.904543000000 AA   -0.246308792802   2.249233291681   1.709338537892 Bohr   0.0
[INPUT] 10 C      0.073901000000   1.222017000000  -0.868085000000 AA    0.139652650331   2.309277449563  -1.640442902843 Bohr   0.0
[INPUT] 11 C     -0.079384000000  -0.105878000000   1.460376000000 AA   -0.150014018672  -0.200080422617   2.759710678888 Bohr   0.0
[INPUT] 12 C      0.034977000000  -0.034000000000  -1.228185000000 AA    0.066096950659  -0.064250688235  -2.320933280299 Bohr   0.0
[INPUT] 13 C      0.064573000000  -1.045328000000   0.644894000000 AA    0.122025285042  -1.975383630339   1.218673039375 Bohr   0.0
[INPUT] 14 C     -0.093707000000  -1.167606000000  -0.725048000000 AA   -0.177080565955  -2.206455561399  -1.370142147164 Bohr   0.0
[INPUT] 15 C      0.125086000000  -2.488216000000   1.430444000000 AA    0.236378282017  -4.702046778761   2.703147396527 Bohr   0.0
[INPUT] 16 C      0.138178000000  -2.493570000000  -1.357793000000 AA    0.261118576440  -4.712164372432  -2.565856903852 Bohr   0.0
[INPUT] 17 C     -0.084930000000  -3.637729000000   0.814919000000 AA   -0.160494439759  -6.874311525388   1.539973723704 Bohr   0.0
[INPUT] 18 C     -0.104668000000  -3.767246000000  -0.548233000000 AA   -0.197793854006  -7.119063183863  -1.036010222449 Bohr   0.0
[INPUT] 19 C     -0.142533000000  -4.886916000000   1.300667000000 AA   -0.269348333713  -9.234932833755   2.457904409260 Bohr   0.0
[INPUT] 20 C      0.013357000000  -4.969322000000  -1.550294000000 AA    0.025241071846  -9.390657604776  -2.929631072556 Bohr   0.0
[INPUT] 21 C     -0.063303000000  -6.109575000000   0.598019000000 AA   -0.119625332863 -11.545423487490   1.130092127286 Bohr   0.0
[INPUT] 22 C      0.024088000000  -6.075040000000  -0.530788000000 AA    0.045519722889 -11.480161795778  -1.003043950206 Bohr   0.0
[INPUT] 23 H     -0.157091000000   4.848190000000   2.422860000000 AA   -0.296858966634   9.161751299855   4.578541838164 Bohr   0.0
[INPUT] 24 H      0.061657000000   2.428858000000   2.488168000000 AA    0.116514843662   4.589876415459   4.701956071907 Bohr   0.0
[INPUT] 25 H      0.071731000000   4.988131000000  -2.516273000000 AA    0.135551944641   9.426201463453  -4.755066824638 Bohr   0.0
[INPUT] 26 H      0.041176000000   2.373186000000  -2.405184000000 AA    0.077811362905   4.484671582652  -4.545139039186 Bohr   0.0
[INPUT] 27 H      0.114148000000   6.908248000000  -1.187104000000 AA    0.215708457667  13.054696720574  -2.243301441376 Bohr   0.0
[INPUT] 28 H     -0.041516000000   7.110563000000   1.190888000000 AA   -0.078453869787  13.437016661466   2.250452165031 Bohr   0.0
[INPUT] 29 H      0.066804000000  -0.023905000000   2.370502000000 AA    0.126241264025  -0.045173903008   4.479599557734 Bohr   0.0
[INPUT] 30 H      0.003205000000  -0.041267000000  -2.524003000000 AA    0.006056572229  -0.077983327982  -4.769674407581 Bohr   0.0
[INPUT] 31 H     -0.022515000000  -2.518788000000   2.644516000000 AA   -0.042547183695  -4.759819485841   4.997410972030 Bohr   0.0
[INPUT] 32 H      0.150757000000  -2.503623000000  -2.479960000000 AA    0.284889441361  -4.731161789162  -4.686445199876 Bohr   0.0
[INPUT] 33 H     -0.082599000000  -4.987700000000   2.389259000000 AA   -0.156089488163  -9.425386991493   4.515045150652 Bohr   0.0
[INPUT] 34 H     -0.181824000000  -4.811779000000  -2.463638000000 AA   -0.343597562873  -9.092944481934  -4.655601090071 Bohr   0.0
[INPUT] 35 H     -0.060785000000  -7.008469000000   1.308016000000 AA   -0.114867002482 -13.244086962504   2.471792006549 Bohr   0.0
[INPUT] 36 H     -0.095344000000  -7.065421000000  -1.316568000000 AA   -0.180174047621 -13.351710644751  -2.487952944366 Bohr   0.0
[INPUT] ---------------- BASIS SET ---------------- 
[INPUT] l, kappa, [nprim/nctr], expnt,             c_1 c_2 ...
[INPUT] H
[INPUT] 0    0    [3    /1   ]  3.42525091        0.15432897
                                0.62391373        0.53532814
                                0.1688554         0.44463454
[INPUT] C
[INPUT] 0    0    [3    /1   ]  71.616837         0.15432897
                                13.045096         0.53532814
                                3.5305122         0.44463454
[INPUT] 0    0    [3    /1   ]  2.9412494         -0.09996723
                                0.6834831         0.39951283
                                0.2222899         0.70011547
[INPUT] 1    0    [3    /1   ]  2.9412494         0.15591627
                                0.6834831         0.60768372
                                0.2222899         0.39195739

nuclear repulsion = 1498.83361049029
number of shells = 80
number of NR pGTOs = 372
number of NR cGTOs = 124
basis = sto3g
ecp = {}
CPU time:     59455.25
atom C rad-grids = 99, ang-grids = [ 50  50  50  50  50  50  50  50  50  50  50  50  50  50  50  50  50  50
  50  50  50  50  50  50  50  50  50  50  50  50  50  86  86  86  86  86
  86  86  86  86  86  86  86 434 434 434 434 434 434 434 434 434 590 590
 590 590 590 590 590 590 590 590 590 590 590 590 590 590 590 590 590 590
 590 590 590 590 590 590 590 434 434 434 434 434 434 434 434 434 434 434
 434 434 434 434 434 434 434 434 434]
atom H rad-grids = 99, ang-grids = [ 50  50  50  50  50  50  50  50  50  50  50  50  50  50  50  50  50  50
  50  50  50  50  50  50  50  50  50  50  86  86  86  86  86  86  86 434
 434 434 434 434 434 434 434 590 590 590 590 590 590 590 590 590 590 590
 590 590 590 590 590 590 590 590 590 590 590 590 590 590 590 434 434 434
 434 434 434 434 434 434 434 434 434 434 434 434 434 434 434 434 434 434
 434 434 434 434 434 434 434 434 434]
tot_boxes 5270, boxes in each direction [ 8 29 15]
Padding 0 grids
tot grids = 1157832


******** <class 'pyscf.dft.rks.RKS'> ********
method = RKS
initial guess = minao
damping factor = 0
level_shift factor = 0
DIIS = <class 'pyscf.scf.diis.CDIIS'>
diis_start_cycle = 1
diis_space = 8
SCF conv_tol = 1e-10
SCF conv_tol_grad = None
SCF max_cycles = 50
direct_scf = True
direct_scf_tol = 1e-13
chkfile to save SCF result = /home/saade/mlelec/tutorials/tmpsjmkqgkc
max_memory 4000 MB (current use 691 MB)
XC library pyscf.dft.libxc version 6.1.0
    S. Lehtola, C. Steigemann, M. J.T. Oliveira, and M. A.L. Marques.,  SoftwareX 7, 1–5 (2018)
XC functionals = b3lypg
    P. J. Stephens, F. J. Devlin, C. F. Chabalowski, and M. J. Frisch.,  J. Phys. Chem. 98, 11623 (1994)
radial grids: 
    Treutler-Ahlrichs [JCP 102, 346 (1995); DOI:10.1063/1.469408] (M4) radial grids
    
becke partition: Becke, JCP 88, 2547 (1988); DOI:10.1063/1.454033
pruning grids: <function nwchem_prune at 0x7f9db5616ca0>
grids dens level: 3
symmetrized grids: False
atomic radii adjust function: <function treutler_atomic_radii_adjust at 0x7f9db5617380>
User specified grid scheme (99, 590)
small_rho_cutoff = 1e-07
Set gradient conv threshold to 1e-05
Initial guess from minao.
nelec by numeric integration = 145.26956583498364
    CPU time for vxc     37.09 sec, wall time     15.67 sec
E1 = -4096.26293476274  Ecoul = 1882.1797080779054  Exc = -126.18992743039786
init E= -841.439543624943
cond(S) = 35.355172448665215
    CPU time for initialize scf     46.77 sec, wall time     18.04 sec
  HOMO = -0.190975591969142  LUMO = -0.166426367240363
  mo_energy =
[-10.2271712  -10.16097214 -10.15306147 -10.14318828 -10.13693268
 -10.13085034 -10.1293459  -10.12710849 -10.12280973 -10.12007903
 -10.1179469  -10.09902526 -10.097493   -10.0863586  -10.08598709
 -10.08534812 -10.08517615 -10.08273603 -10.0815578  -10.07944665
 -10.0702028  -10.0589022   -1.15860405  -1.09905592  -1.07094851
  -0.97456241  -0.96320614  -0.92538394  -0.92019815  -0.88228792
  -0.87839376  -0.82382383  -0.79452768  -0.7674165   -0.74122571
  -0.7372042   -0.72410686  -0.70085608  -0.67509038  -0.65340914
  -0.60658506  -0.59530757  -0.56992911  -0.56117334  -0.55688098
  -0.53316934  -0.5276742   -0.5253844   -0.51667412  -0.4941928
  -0.4820835   -0.47535576  -0.46311626  -0.45338362  -0.44841349
  -0.44398332  -0.4278513   -0.41654026  -0.39164674  -0.38438231
  -0.37593573  -0.36456319  -0.34959937  -0.34200907  -0.32098101
  -0.31176762  -0.30361853  -0.29545798  -0.27727658  -0.27475777
  -0.26750238  -0.22432718  -0.19097559  -0.16642637  -0.12127232
  -0.09922621  -0.06847446  -0.0494156   -0.0371937    0.01166502
   0.03919478   0.07770105   0.08978832   0.11119155   0.11729244
   0.12530342   0.1279693    0.14620475   0.1556585    0.16424006
   0.17117318   0.17843023   0.21100536   0.2210265    0.2314823
   0.25322232   0.25957149   0.27064525   0.28108609   0.28364645
   0.31222568   0.32745429   0.33550933   0.35197225   0.37888518
   0.41677154   0.4341787    0.45613386   0.4944       0.51802237
   0.53590284   0.55400802   0.56363361   0.58399397   0.5877735
   0.62447062   0.65653245   0.69473904   0.7261189    0.80680218
   0.91254541   0.93296209   0.99084497   1.1193429 ]
nelec by numeric integration = 145.99999603619307
    CPU time for vxc     38.48 sec, wall time     15.88 sec
E1 = -4110.743685651805  Ecoul = 1901.983034581359  Exc = -124.83443823231445
cycle= 1 E= -834.761478812471  delta_E= 6.68  |g|= 0.398  |ddm|= 9.39
    CPU time for cycle= 1     38.86 sec, wall time     15.94 sec
  HOMO = -0.0846784200175659  LUMO = -0.0152459659672436
  mo_energy =
[-10.1248912  -10.11574615 -10.07228046 -10.05599915 -10.02410093
 -10.00645695 -10.00392867  -9.99473897  -9.98092358  -9.97742947
  -9.97635862  -9.97079396  -9.97042499  -9.96727011  -9.96463936
  -9.95233764  -9.94805638  -9.94643919  -9.9351392   -9.93255663
  -9.92486616  -9.92440561  -0.88598958  -0.82446972  -0.80525977
  -0.75536364  -0.74234381  -0.73076148  -0.7172572   -0.69675618
  -0.68991225  -0.6530787   -0.63301712  -0.61686052  -0.61231469
  -0.59491764  -0.58166555  -0.55612683  -0.52593619  -0.49898792
  -0.4911763   -0.47579364  -0.46291681  -0.44711029  -0.43660993
  -0.43245199  -0.42046107  -0.40280171  -0.39479113  -0.38402177
  -0.36613008  -0.35613162  -0.35136894  -0.33815807  -0.33465745
  -0.32893486  -0.32006956  -0.30883947  -0.29732658  -0.27378385
  -0.26035754  -0.24930191  -0.24311297  -0.23330023  -0.22620709
  -0.21215962  -0.20817841  -0.20182785  -0.17491035  -0.16518519
  -0.15403942  -0.12456341  -0.08467842  -0.01524597   0.01681972
   0.03398793   0.06625293   0.10051995   0.12910914   0.20034263
   0.20727159   0.21677427   0.23773605   0.24390215   0.24751987
   0.27445393   0.27794623   0.30162239   0.3063648    0.31458403
   0.32893561   0.34035672   0.35128567   0.37338199   0.38270545
   0.39088574   0.39802034   0.41923899   0.42442772   0.43680817
   0.45649406   0.47223161   0.51008239   0.51065568   0.53001152
   0.56290927   0.58523868   0.58825532   0.60467961   0.61684738
   0.69403924   0.70498963   0.72042494   0.7483674    0.78017273
   0.79723527   0.83665055   0.87496551   0.92364835   1.0034462
   1.10613144   1.11619773   1.17243472   1.28945659]
nelec by numeric integration = 145.9999961540025
    CPU time for vxc     38.24 sec, wall time     15.92 sec
E1 = -4102.968660460192  Ecoul = 1894.3925722373497  Exc = -124.71870900837926
cycle= 2 E= -834.461186740932  delta_E=  0.3  |g|= 0.99  |ddm|= 2.13
    CPU time for cycle= 2     38.65 sec, wall time     15.98 sec
  HOMO = -0.0884668939219738  LUMO = -0.0328140998923515
  mo_energy =
[-10.05454559 -10.04443598 -10.04287904 -10.02987916 -10.02650217
 -10.02616728 -10.02393536 -10.02193606 -10.01684233 -10.01470532
 -10.01204636 -10.00957558 -10.00876487 -10.00423984 -10.00195296
  -9.9927344   -9.98489173  -9.98255054  -9.97414138  -9.97289665
  -9.96524889  -9.96284512  -0.89896529  -0.85891174  -0.84041449
  -0.77847367  -0.75702189  -0.73324601  -0.72359008  -0.70475978
  -0.7025018   -0.65816172  -0.64734096  -0.61890543  -0.60389028
  -0.59950051  -0.59423903  -0.5800201   -0.54501119  -0.52460634
  -0.49678949  -0.48306457  -0.46630601  -0.4567138   -0.45198654
  -0.43738811  -0.43027035  -0.41929174  -0.41000933  -0.39436983
  -0.38066385  -0.37502843  -0.37027489  -0.35796138  -0.35402493
  -0.34540825  -0.3381595   -0.31996475  -0.30334183  -0.29478955
  -0.27808536  -0.2682313   -0.254198    -0.24476731  -0.21951802
  -0.21801786  -0.20738407  -0.20086658  -0.18391614  -0.17543125
  -0.16140183  -0.12380585  -0.08846689  -0.0328141    0.01470484
   0.04590067   0.07081736   0.08728273   0.10757377   0.16564724
   0.17845356   0.22558314   0.23134866   0.23625176   0.26557229
   0.26934879   0.27600912   0.2881209    0.29350138   0.30316593
   0.31833483   0.3336988    0.33771266   0.350087     0.37868703
   0.38436381   0.40834953   0.41606949   0.41882007   0.43371891
   0.44322756   0.45454275   0.48429477   0.49465063   0.50222932
   0.56013017   0.56400201   0.58956654   0.63750815   0.66173855
   0.66376826   0.67312287   0.70266586   0.71924101   0.73794656
   0.75708141   0.80069291   0.83692752   0.87945007   0.9709552
   1.07429899   1.0832879    1.15731806   1.26652716]
nelec by numeric integration = 145.9999961118703
    CPU time for vxc     38.06 sec, wall time     15.84 sec
E1 = -4107.338338614058  Ecoul = 1898.4270629351863  Exc = -124.70879772005378
cycle= 3 E= -834.786462908636  delta_E= -0.325  |g|= 0.294  |ddm|= 2.04
    CPU time for cycle= 3     38.66 sec, wall time     15.93 sec
  HOMO = -0.0915704402613704  LUMO = -0.0379614937420785
  mo_energy =
[-1.00708316e+01 -1.00662257e+01 -1.00392830e+01 -1.00360951e+01
 -1.00333902e+01 -1.00282380e+01 -1.00266506e+01 -1.00239323e+01
 -1.00235052e+01 -1.00183862e+01 -1.00172038e+01 -1.00153605e+01
 -1.00124771e+01 -1.00095444e+01 -1.00085403e+01 -1.00054950e+01
 -1.00017838e+01 -9.99967769e+00 -9.99523181e+00 -9.99517848e+00
 -9.98428733e+00 -9.97559390e+00 -9.11189688e-01 -8.58802512e-01
 -8.43259626e-01 -7.74265065e-01 -7.63424021e-01 -7.47119495e-01
 -7.37069796e-01 -7.11985153e-01 -7.07290669e-01 -6.68497406e-01
 -6.41303422e-01 -6.31244296e-01 -6.12834652e-01 -6.03165177e-01
 -6.02897118e-01 -5.76230953e-01 -5.52892003e-01 -5.28488789e-01
 -4.98040008e-01 -4.89366367e-01 -4.72059713e-01 -4.63013999e-01
 -4.52889928e-01 -4.39514309e-01 -4.34236426e-01 -4.23423452e-01
 -4.16291377e-01 -3.95006241e-01 -3.88809686e-01 -3.76974215e-01
 -3.69258925e-01 -3.65309943e-01 -3.59695876e-01 -3.47058031e-01
 -3.38110105e-01 -3.23737318e-01 -3.10323986e-01 -2.96480975e-01
 -2.76952044e-01 -2.66116002e-01 -2.61011671e-01 -2.54943256e-01
 -2.31301756e-01 -2.25542566e-01 -2.17865321e-01 -2.10333647e-01
 -1.90163565e-01 -1.87484479e-01 -1.73823731e-01 -1.30951004e-01
 -9.15704403e-02 -3.79614937e-02  7.41528971e-03  3.11348583e-02
  6.21900944e-02  8.32108013e-02  9.90830955e-02  1.58740998e-01
  1.79824675e-01  2.11806452e-01  2.29031705e-01  2.32481390e-01
  2.58528090e-01  2.65901118e-01  2.70844688e-01  2.84793838e-01
  2.88511651e-01  3.04160193e-01  3.09171628e-01  3.23795837e-01
  3.33698980e-01  3.54312697e-01  3.67844886e-01  3.83911436e-01
  3.93895393e-01  4.06384895e-01  4.13879607e-01  4.16992485e-01
  4.39396588e-01  4.59260950e-01  4.76574699e-01  4.91791064e-01
  5.10831468e-01  5.56392415e-01  5.58018899e-01  5.91213618e-01
  6.22537291e-01  6.52611059e-01  6.55464769e-01  6.81740231e-01
  7.00242718e-01  7.15868375e-01  7.35649031e-01  7.69307995e-01
  7.97812250e-01  8.37923887e-01  8.76045510e-01  9.53493177e-01
  1.06466035e+00  1.07613831e+00  1.14186281e+00  1.24643897e+00]
nelec by numeric integration = 145.99999605513855
    CPU time for vxc     38.27 sec, wall time     15.88 sec
E1 = -4106.964564495742  Ecoul = 1898.0452580115902  Exc = -124.71925081512285
cycle= 4 E= -834.804946808985  delta_E= -0.0185  |g|= 0.213  |ddm|= 0.982
    CPU time for cycle= 4     38.88 sec, wall time     15.97 sec
  HOMO = -0.0971331848818434  LUMO = -0.0440329504852535
  mo_energy =
[-1.00713570e+01 -1.00650064e+01 -1.00395216e+01 -1.00361992e+01
 -1.00349728e+01 -1.00346044e+01 -1.00324756e+01 -1.00277641e+01
 -1.00225664e+01 -1.00222991e+01 -1.00202885e+01 -1.00197077e+01
 -1.00186138e+01 -1.00166970e+01 -1.00146740e+01 -1.00139345e+01
 -1.00076929e+01 -1.00038045e+01 -1.00026260e+01 -9.99919841e+00
 -9.99909962e+00 -9.99730305e+00 -9.10560310e-01 -8.64640693e-01
 -8.50075318e-01 -7.84571811e-01 -7.66627288e-01 -7.45856333e-01
 -7.36178842e-01 -7.12895708e-01 -7.08503458e-01 -6.67518997e-01
 -6.50516678e-01 -6.30698143e-01 -6.14155812e-01 -6.07421758e-01
 -6.05068649e-01 -5.81940579e-01 -5.55065735e-01 -5.32063228e-01
 -5.01314125e-01 -4.90958846e-01 -4.72415325e-01 -4.64448932e-01
 -4.57506501e-01 -4.41736114e-01 -4.37215070e-01 -4.25289844e-01
 -4.17998517e-01 -3.98640655e-01 -3.90950440e-01 -3.76983325e-01
 -3.75049307e-01 -3.67030291e-01 -3.62226627e-01 -3.51928776e-01
 -3.43594277e-01 -3.27905416e-01 -3.11842018e-01 -3.02129726e-01
 -2.85054681e-01 -2.72246205e-01 -2.64636839e-01 -2.57657308e-01
 -2.32422247e-01 -2.26528048e-01 -2.19237826e-01 -2.11756097e-01
 -1.91340796e-01 -1.88444434e-01 -1.75508603e-01 -1.33366971e-01
 -9.71331849e-02 -4.40329505e-02  4.97211613e-03  2.87779476e-02
  6.21123304e-02  8.05112075e-02  9.66460019e-02  1.55776947e-01
  1.71298762e-01  2.13479219e-01  2.26354906e-01  2.29908984e-01
  2.56134295e-01  2.62202548e-01  2.66014208e-01  2.81505216e-01
  2.84615620e-01  2.95097750e-01  3.05844729e-01  3.23208673e-01
  3.34690184e-01  3.49061719e-01  3.67441860e-01  3.81115172e-01
  3.96125413e-01  4.08445266e-01  4.13423786e-01  4.18003153e-01
  4.39735328e-01  4.54899312e-01  4.77839381e-01  4.88694256e-01
  5.02543776e-01  5.55319304e-01  5.56733632e-01  5.84907605e-01
  6.23392264e-01  6.48412139e-01  6.50769115e-01  6.71107440e-01
  6.95940877e-01  7.13066205e-01  7.32253308e-01  7.55829475e-01
  7.92434119e-01  8.28724930e-01  8.69943191e-01  9.52614201e-01
  1.06613746e+00  1.06828241e+00  1.14240816e+00  1.25266495e+00]
nelec by numeric integration = 145.99999607717234
    CPU time for vxc     37.93 sec, wall time     15.74 sec
E1 = -4107.287266779755  Ecoul = 1898.3558039723569  Exc = -124.72427874061339
cycle= 5 E= -834.822131057721  delta_E= -0.0172  |g|= 0.0639  |ddm|= 0.464
    CPU time for cycle= 5     38.23 sec, wall time     15.80 sec
  HOMO = -0.0978220440055388  LUMO = -0.0435524445359857
  mo_energy =
[-1.00729601e+01 -1.00661129e+01 -1.00416319e+01 -1.00353970e+01
 -1.00335858e+01 -1.00315712e+01 -1.00276621e+01 -1.00272744e+01
 -1.00262328e+01 -1.00223396e+01 -1.00218745e+01 -1.00209379e+01
 -1.00159668e+01 -1.00158803e+01 -1.00154173e+01 -1.00144557e+01
 -1.00093401e+01 -1.00091885e+01 -1.00065102e+01 -1.00012292e+01
 -9.99744421e+00 -9.99606012e+00 -9.12643152e-01 -8.64450922e-01
 -8.49344446e-01 -7.83226346e-01 -7.67507717e-01 -7.46350906e-01
 -7.34719344e-01 -7.13184423e-01 -7.10583182e-01 -6.69595828e-01
 -6.49394323e-01 -6.31171972e-01 -6.14063815e-01 -6.07398301e-01
 -6.03009079e-01 -5.83105160e-01 -5.54837053e-01 -5.33117048e-01
 -5.01942589e-01 -4.91656604e-01 -4.73170829e-01 -4.65240341e-01
 -4.58031203e-01 -4.43058796e-01 -4.37047449e-01 -4.26308536e-01
 -4.19445310e-01 -3.99386178e-01 -3.90016718e-01 -3.78195761e-01
 -3.75320285e-01 -3.67195438e-01 -3.63624896e-01 -3.52074833e-01
 -3.43896928e-01 -3.28538347e-01 -3.11396683e-01 -3.02379012e-01
 -2.84414365e-01 -2.72396975e-01 -2.65337485e-01 -2.57725226e-01
 -2.31371044e-01 -2.27274633e-01 -2.19358290e-01 -2.12318945e-01
 -1.93627601e-01 -1.88640501e-01 -1.74546615e-01 -1.35082373e-01
 -9.78220440e-02 -4.35524445e-02  3.79588035e-03  3.13707756e-02
  6.11063024e-02  7.81967135e-02  9.62932114e-02  1.54608369e-01
  1.72120246e-01  2.13079414e-01  2.26352061e-01  2.30117976e-01
  2.56497137e-01  2.62090653e-01  2.67260813e-01  2.82035544e-01
  2.88792766e-01  2.93826129e-01  3.05717313e-01  3.21587201e-01
  3.33823075e-01  3.48067332e-01  3.67640087e-01  3.80637570e-01
  3.95794946e-01  4.06064012e-01  4.12301608e-01  4.18119580e-01
  4.36643991e-01  4.52698437e-01  4.75503137e-01  4.87120880e-01
  5.03289792e-01  5.54130105e-01  5.54529407e-01  5.84596562e-01
  6.23925936e-01  6.49488411e-01  6.53664867e-01  6.70796032e-01
  6.94911257e-01  7.10666067e-01  7.28889456e-01  7.56287073e-01
  7.92278855e-01  8.28896061e-01  8.69757359e-01  9.52947479e-01
  1.06320702e+00  1.07140979e+00  1.14087136e+00  1.25721278e+00]
nelec by numeric integration = 145.99999608236894
    CPU time for vxc     38.35 sec, wall time     15.92 sec
E1 = -4107.519517340207  Ecoul = 1898.5868502826306  Exc = -124.72415626348327
cycle= 6 E= -834.82321283077  delta_E= -0.00108  |g|= 0.034  |ddm|= 0.147
    CPU time for cycle= 6     38.82 sec, wall time     15.99 sec
  HOMO = -0.0973805753592765  LUMO = -0.0423555951547293
  mo_energy =
[-1.00688875e+01 -1.00638543e+01 -1.00414396e+01 -1.00340626e+01
 -1.00326395e+01 -1.00306667e+01 -1.00266048e+01 -1.00260434e+01
 -1.00248264e+01 -1.00245591e+01 -1.00204157e+01 -1.00183467e+01
 -1.00180853e+01 -1.00151855e+01 -1.00115764e+01 -1.00101383e+01
 -1.00085283e+01 -1.00075028e+01 -1.00037328e+01 -9.99929452e+00
 -9.99841652e+00 -9.99656825e+00 -9.10251745e-01 -8.63493227e-01
 -8.48486209e-01 -7.82367736e-01 -7.65912381e-01 -7.45514539e-01
 -7.34991441e-01 -7.12489376e-01 -7.09570398e-01 -6.68025754e-01
 -6.48800746e-01 -6.30228563e-01 -6.13047134e-01 -6.06584800e-01
 -6.03134491e-01 -5.82144558e-01 -5.54235431e-01 -5.31604348e-01
 -5.01090120e-01 -4.90525262e-01 -4.72294156e-01 -4.64175611e-01
 -4.57121170e-01 -4.41910884e-01 -4.36256053e-01 -4.25249693e-01
 -4.17883397e-01 -3.98089470e-01 -3.90007729e-01 -3.77508633e-01
 -3.74448175e-01 -3.66539390e-01 -3.62571768e-01 -3.51251766e-01
 -3.43131020e-01 -3.27623473e-01 -3.11066636e-01 -3.02037785e-01
 -2.83657827e-01 -2.71620550e-01 -2.64145665e-01 -2.57228320e-01
 -2.31318549e-01 -2.26658101e-01 -2.19003157e-01 -2.11681976e-01
 -1.92301876e-01 -1.88384409e-01 -1.74599649e-01 -1.34054084e-01
 -9.73805754e-02 -4.23555952e-02  5.04387814e-03  3.09667535e-02
  6.18811349e-02  7.94901083e-02  9.69605159e-02  1.56223180e-01
  1.72927721e-01  2.13538902e-01  2.27236002e-01  2.30758778e-01
  2.57292595e-01  2.63049545e-01  2.67514172e-01  2.82579406e-01
  2.87522861e-01  2.95113051e-01  3.06522621e-01  3.23313058e-01
  3.34427431e-01  3.49004280e-01  3.67737586e-01  3.81604552e-01
  3.96333246e-01  4.07098340e-01  4.13231721e-01  4.18221277e-01
  4.38325323e-01  4.54183990e-01  4.76985081e-01  4.88387996e-01
  5.02954808e-01  5.55526020e-01  5.55805451e-01  5.85566907e-01
  6.24582753e-01  6.50953835e-01  6.53328509e-01  6.71795597e-01
  6.96458945e-01  7.12418614e-01  7.31670777e-01  7.56828315e-01
  7.93423048e-01  8.29951948e-01  8.71228038e-01  9.53970844e-01
  1.06560907e+00  1.07218901e+00  1.14341638e+00  1.25419866e+00]
nelec by numeric integration = 145.9999960791619
    CPU time for vxc     38.42 sec, wall time     15.86 sec
E1 = -4107.33985734389  Ecoul = 1898.4042621855465  Exc = -124.72164457388143
cycle= 7 E= -834.823629241935  delta_E= -0.000416  |g|= 0.00989  |ddm|= 0.0679
    CPU time for cycle= 7     38.78 sec, wall time     15.92 sec
  HOMO = -0.097243977772337  LUMO = -0.0420200751928671
  mo_energy =
[-1.00691183e+01 -1.00640642e+01 -1.00411501e+01 -1.00342115e+01
 -1.00318739e+01 -1.00312498e+01 -1.00270985e+01 -1.00250987e+01
 -1.00244589e+01 -1.00231313e+01 -1.00193522e+01 -1.00188385e+01
 -1.00162284e+01 -1.00158218e+01 -1.00101184e+01 -1.00097659e+01
 -1.00087837e+01 -1.00077801e+01 -1.00031817e+01 -9.99980732e+00
 -9.99885808e+00 -9.99643898e+00 -9.10182248e-01 -8.63381173e-01
 -8.48495321e-01 -7.82342725e-01 -7.66107043e-01 -7.45091899e-01
 -7.34623794e-01 -7.12234800e-01 -7.09406579e-01 -6.68043718e-01
 -6.48594034e-01 -6.30038929e-01 -6.12778368e-01 -6.06399693e-01
 -6.03106996e-01 -5.81923694e-01 -5.54132174e-01 -5.31701133e-01
 -5.00978970e-01 -4.90444012e-01 -4.71989878e-01 -4.64146332e-01
 -4.57136316e-01 -4.41894736e-01 -4.36321781e-01 -4.25182035e-01
 -4.17775994e-01 -3.98106520e-01 -3.89618526e-01 -3.77404861e-01
 -3.74364415e-01 -3.66332677e-01 -3.62487378e-01 -3.51269444e-01
 -3.43062747e-01 -3.27572073e-01 -3.10773445e-01 -3.01739353e-01
 -2.83641256e-01 -2.71438611e-01 -2.64218687e-01 -2.56877159e-01
 -2.31013862e-01 -2.26526990e-01 -2.18707848e-01 -2.11542035e-01
 -1.92050770e-01 -1.88264623e-01 -1.74410670e-01 -1.33921849e-01
 -9.72439778e-02 -4.20200752e-02  5.26171663e-03  3.12392829e-02
  6.23523588e-02  7.98907991e-02  9.71618143e-02  1.56054369e-01
  1.72913730e-01  2.13602226e-01  2.27233973e-01  2.30513943e-01
  2.57344022e-01  2.63110120e-01  2.67758788e-01  2.82871306e-01
  2.87953597e-01  2.95214670e-01  3.06650403e-01  3.23410981e-01
  3.34625778e-01  3.49147255e-01  3.67971084e-01  3.81414574e-01
  3.96753412e-01  4.07454596e-01  4.13346856e-01  4.18697888e-01
  4.38485220e-01  4.54216374e-01  4.77081275e-01  4.88573028e-01
  5.03312852e-01  5.55648849e-01  5.55975380e-01  5.85682593e-01
  6.25011938e-01  6.50973270e-01  6.53197054e-01  6.72158301e-01
  6.96366538e-01  7.12516661e-01  7.31641491e-01  7.57346441e-01
  7.93477810e-01  8.30070181e-01  8.71027514e-01  9.53771479e-01
  1.06564974e+00  1.07169183e+00  1.14340987e+00  1.25499149e+00]
nelec by numeric integration = 145.99999607861983
    CPU time for vxc     38.40 sec, wall time     16.09 sec
E1 = -4107.3320608610875  Ecoul = 1898.3961491103742  Exc = -124.72135907810993
cycle= 8 E= -834.823660338534  delta_E= -3.11e-05  |g|= 0.00397  |ddm|= 0.017
    CPU time for cycle= 8     38.86 sec, wall time     16.16 sec
  HOMO = -0.0973245547326584  LUMO = -0.0420645164426002
  mo_energy =
[-1.00695448e+01 -1.00644396e+01 -1.00408903e+01 -1.00341640e+01
 -1.00321743e+01 -1.00313806e+01 -1.00272559e+01 -1.00248499e+01
 -1.00244611e+01 -1.00235202e+01 -1.00194184e+01 -1.00189404e+01
 -1.00164296e+01 -1.00159129e+01 -1.00104539e+01 -1.00101530e+01
 -1.00083781e+01 -1.00079067e+01 -1.00031763e+01 -9.99961315e+00
 -9.99800493e+00 -9.99629604e+00 -9.10415368e-01 -8.63421814e-01
 -8.48541361e-01 -7.82453065e-01 -7.66117413e-01 -7.45292932e-01
 -7.34581881e-01 -7.12223360e-01 -7.09370152e-01 -6.68053025e-01
 -6.48704821e-01 -6.30104077e-01 -6.12848028e-01 -6.06479508e-01
 -6.02918686e-01 -5.81963528e-01 -5.54184663e-01 -5.31712082e-01
 -5.01028710e-01 -4.90524523e-01 -4.72115176e-01 -4.64225936e-01
 -4.57177648e-01 -4.41889904e-01 -4.36281507e-01 -4.25178087e-01
 -4.17909823e-01 -3.98174452e-01 -3.89619947e-01 -3.77439799e-01
 -3.74408022e-01 -3.66441883e-01 -3.62531202e-01 -3.51296658e-01
 -3.43105140e-01 -3.27602892e-01 -3.10799593e-01 -3.01784484e-01
 -2.83696293e-01 -2.71496325e-01 -2.64232353e-01 -2.56955123e-01
 -2.30959649e-01 -2.26489251e-01 -2.18740695e-01 -2.11513610e-01
 -1.92060707e-01 -1.88223707e-01 -1.74331222e-01 -1.33917577e-01
 -9.73245547e-02 -4.20645164e-02  5.28151148e-03  3.13464791e-02
  6.22836055e-02  7.98589314e-02  9.71552501e-02  1.56058177e-01
  1.72831286e-01  2.13620119e-01  2.27275871e-01  2.30496330e-01
  2.57293441e-01  2.63098922e-01  2.67823242e-01  2.82754935e-01
  2.88147370e-01  2.95196027e-01  3.06635720e-01  3.23268613e-01
  3.34574022e-01  3.49122963e-01  3.67968398e-01  3.81405711e-01
  3.96642200e-01  4.07440554e-01  4.13319569e-01  4.18615478e-01
  4.38437418e-01  4.54163456e-01  4.77069721e-01  4.88497291e-01
  5.03219338e-01  5.55611712e-01  5.55850369e-01  5.85623732e-01
  6.24812410e-01  6.50860864e-01  6.53487993e-01  6.72077004e-01
  6.96359898e-01  7.12511683e-01  7.31503293e-01  7.57225256e-01
  7.93454739e-01  8.30019054e-01  8.71044540e-01  9.53785484e-01
  1.06547682e+00  1.07157504e+00  1.14310280e+00  1.25514377e+00]
nelec by numeric integration = 145.9999960782685
    CPU time for vxc     38.36 sec, wall time     15.87 sec
E1 = -4107.350524624311  Ecoul = 1898.4147917685202  Exc = -124.72154190878683
cycle= 9 E= -834.823664274288  delta_E= -3.94e-06  |g|= 0.00232  |ddm|= 0.00751
    CPU time for cycle= 9     38.76 sec, wall time     15.93 sec
  HOMO = -0.0973532712871163  LUMO = -0.0420413281011508
  mo_energy =
[-1.00694930e+01 -1.00642137e+01 -1.00409337e+01 -1.00342388e+01
 -1.00323642e+01 -1.00313173e+01 -1.00271566e+01 -1.00250281e+01
 -1.00243129e+01 -1.00233831e+01 -1.00196162e+01 -1.00190402e+01
 -1.00165607e+01 -1.00158420e+01 -1.00102668e+01 -1.00100665e+01
 -1.00085546e+01 -1.00079452e+01 -1.00033738e+01 -9.99954094e+00
 -9.99817520e+00 -9.99618469e+00 -9.10320753e-01 -8.63478662e-01
 -8.48574555e-01 -7.82495052e-01 -7.66123969e-01 -7.45191848e-01
 -7.34604944e-01 -7.12267812e-01 -7.09444402e-01 -6.68062771e-01
 -6.48714809e-01 -6.30083719e-01 -6.12821921e-01 -6.06475829e-01
 -6.02986799e-01 -5.82040110e-01 -5.54181798e-01 -5.31713102e-01
 -5.01072250e-01 -4.90499259e-01 -4.72083995e-01 -4.64197468e-01
 -4.57186949e-01 -4.41930585e-01 -4.36286143e-01 -4.25196562e-01
 -4.17869045e-01 -3.98154396e-01 -3.89617558e-01 -3.77459475e-01
 -3.74448968e-01 -3.66392485e-01 -3.62547371e-01 -3.51314956e-01
 -3.43126167e-01 -3.27597700e-01 -3.10760081e-01 -3.01809379e-01
 -2.83711933e-01 -2.71526835e-01 -2.64231134e-01 -2.56910902e-01
 -2.30957664e-01 -2.26521779e-01 -2.18721303e-01 -2.11507947e-01
 -1.92114551e-01 -1.88181483e-01 -1.74330060e-01 -1.33932992e-01
 -9.73532713e-02 -4.20413281e-02  5.25477897e-03  3.13480689e-02
  6.23106549e-02  7.98006433e-02  9.71587735e-02  1.56060582e-01
  1.72808877e-01  2.13696579e-01  2.27294336e-01  2.30509015e-01
  2.57325196e-01  2.63097904e-01  2.67834791e-01  2.82784066e-01
  2.88089602e-01  2.95123396e-01  3.06643860e-01  3.23335935e-01
  3.34624120e-01  3.49085382e-01  3.68017979e-01  3.81395509e-01
  3.96691237e-01  4.07388583e-01  4.13292080e-01  4.18685134e-01
  4.38391887e-01  4.54134297e-01  4.77009626e-01  4.88491354e-01
  5.03194271e-01  5.55601657e-01  5.55892975e-01  5.85563041e-01
  6.24940709e-01  6.50933094e-01  6.53412281e-01  6.71988035e-01
  6.96315986e-01  7.12421971e-01  7.31503091e-01  7.57131739e-01
  7.93408514e-01  8.29959090e-01  8.71020515e-01  9.53786114e-01
  1.06554259e+00  1.07160724e+00  1.14322582e+00  1.25501807e+00]
nelec by numeric integration = 145.9999960785664
    CPU time for vxc     38.05 sec, wall time     15.86 sec
E1 = -4107.347852548466  Ecoul = 1898.4121402555288  Exc = -124.72156434291873
cycle= 10 E= -834.823666145566  delta_E= -1.87e-06  |g|= 0.00089  |ddm|= 0.00396
    CPU time for cycle= 10     38.34 sec, wall time     15.91 sec
  HOMO = -0.0973926958353972  LUMO = -0.0420813081927196
  mo_energy =
[-1.00695976e+01 -1.00642919e+01 -1.00411010e+01 -1.00342985e+01
 -1.00323118e+01 -1.00313783e+01 -1.00271837e+01 -1.00251107e+01
 -1.00245716e+01 -1.00233426e+01 -1.00195173e+01 -1.00191165e+01
 -1.00166250e+01 -1.00159174e+01 -1.00103683e+01 -1.00101455e+01
 -1.00086380e+01 -1.00080944e+01 -1.00032309e+01 -9.99975935e+00
 -9.99812930e+00 -9.99648064e+00 -9.10421737e-01 -8.63525329e-01
 -8.48630778e-01 -7.82516970e-01 -7.66201691e-01 -7.45260062e-01
 -7.34667944e-01 -7.12308286e-01 -7.09474190e-01 -6.68140260e-01
 -6.48766691e-01 -6.30119405e-01 -6.12838163e-01 -6.06532948e-01
 -6.02995250e-01 -5.82043725e-01 -5.54229506e-01 -5.31796041e-01
 -5.01084166e-01 -4.90560812e-01 -4.72109009e-01 -4.64253597e-01
 -4.57222894e-01 -4.41945634e-01 -4.36328030e-01 -4.25235096e-01
 -4.17937141e-01 -3.98230088e-01 -3.89643224e-01 -3.77464567e-01
 -3.74492038e-01 -3.66455891e-01 -3.62572099e-01 -3.51359569e-01
 -3.43155087e-01 -3.27645643e-01 -3.10797796e-01 -3.01825441e-01
 -2.83763315e-01 -2.71561921e-01 -2.64308272e-01 -2.56970595e-01
 -2.30997011e-01 -2.26542290e-01 -2.18755694e-01 -2.11580760e-01
 -1.92134684e-01 -1.88271090e-01 -1.74395831e-01 -1.33982484e-01
 -9.73926958e-02 -4.20813082e-02  5.20872716e-03  3.13010183e-02
  6.22601117e-02  7.97911002e-02  9.70774323e-02  1.55961983e-01
  1.72780174e-01  2.13604557e-01  2.27233724e-01  2.30495525e-01
  2.57251749e-01  2.63009234e-01  2.67790609e-01  2.82738031e-01
  2.88075255e-01  2.95108570e-01  3.06568660e-01  3.23248106e-01
  3.34590676e-01  3.49063019e-01  3.67955405e-01  3.81393726e-01
  3.96662498e-01  4.07408022e-01  4.13272658e-01  4.18630854e-01
  4.38388403e-01  4.54090500e-01  4.76989692e-01  4.88444646e-01
  5.03174353e-01  5.55557736e-01  5.55854066e-01  5.85550882e-01
  6.24890140e-01  6.50838476e-01  6.53439964e-01  6.71967162e-01
  6.96259325e-01  7.12409013e-01  7.31406984e-01  7.57114178e-01
  7.93340225e-01  8.29901111e-01  8.70920848e-01  9.53698368e-01
  1.06540592e+00  1.07157680e+00  1.14313793e+00  1.25498635e+00]
nelec by numeric integration = 145.99999607841363
    CPU time for vxc     38.32 sec, wall time     15.84 sec
E1 = -4107.3560637563  Ecoul = 1898.4204833155384  Exc = -124.72169635198246
cycle= 11 E= -834.823666302454  delta_E= -1.57e-07  |g|= 0.000659  |ddm|= 0.00231
    CPU time for cycle= 11     38.87 sec, wall time     15.92 sec
  HOMO = -0.097370929800064  LUMO = -0.0420482557487293
  mo_energy =
[-1.00695175e+01 -1.00642622e+01 -1.00410264e+01 -1.00342554e+01
 -1.00322922e+01 -1.00313601e+01 -1.00271875e+01 -1.00250259e+01
 -1.00244789e+01 -1.00233645e+01 -1.00195485e+01 -1.00190642e+01
 -1.00165843e+01 -1.00158439e+01 -1.00103501e+01 -1.00100637e+01
 -1.00085490e+01 -1.00080226e+01 -1.00032863e+01 -9.99967847e+00
 -9.99814523e+00 -9.99628976e+00 -9.10369027e-01 -8.63493030e-01
 -8.48596772e-01 -7.82500791e-01 -7.66160124e-01 -7.45218439e-01
 -7.34624623e-01 -7.12276185e-01 -7.09450769e-01 -6.68097449e-01
 -6.48734998e-01 -6.30091202e-01 -6.12822223e-01 -6.06497343e-01
 -6.02980212e-01 -5.82033150e-01 -5.54196734e-01 -5.31753240e-01
 -5.01072851e-01 -4.90526720e-01 -4.72091444e-01 -4.64221343e-01
 -4.57204427e-01 -4.41930456e-01 -4.36307152e-01 -4.25214212e-01
 -4.17901192e-01 -3.98193366e-01 -3.89621995e-01 -3.77461148e-01
 -3.74466630e-01 -3.66417015e-01 -3.62556010e-01 -3.51333572e-01
 -3.43135493e-01 -3.27619933e-01 -3.10775893e-01 -3.01811886e-01
 -2.83731426e-01 -2.71539243e-01 -2.64265602e-01 -2.56933953e-01
 -2.30969870e-01 -2.26523622e-01 -2.18730761e-01 -2.11538421e-01
 -1.92112912e-01 -1.88221126e-01 -1.74356418e-01 -1.33952080e-01
 -9.73709298e-02 -4.20482557e-02  5.24003509e-03  3.13329118e-02
  6.22902355e-02  7.98070359e-02  9.71252927e-02  1.56013103e-01
  1.72799819e-01  2.13651160e-01  2.27260393e-01  2.30498334e-01
  2.57293732e-01  2.63057434e-01  2.67814704e-01  2.82771313e-01
  2.88098197e-01  2.95124059e-01  3.06616951e-01  3.23293229e-01
  3.34607571e-01  3.49079686e-01  3.67991631e-01  3.81394708e-01
  3.96686743e-01  4.07409207e-01  4.13286317e-01  4.18670402e-01
  4.38393763e-01  4.54108655e-01  4.77002121e-01  4.88470135e-01
  5.03182253e-01  5.55586601e-01  5.55867071e-01  5.85563385e-01
  6.24922573e-01  6.50886572e-01  6.53434439e-01  6.71991932e-01
  6.96300609e-01  7.12429444e-01  7.31451800e-01  7.57136052e-01
  7.93388602e-01  8.29944017e-01  8.70977450e-01  9.53756785e-01
  1.06547155e+00  1.07158215e+00  1.14318732e+00  1.25502770e+00]
nelec by numeric integration = 145.99999607847272
    CPU time for vxc     38.46 sec, wall time     15.91 sec
E1 = -4107.352028145508  Ecoul = 1898.4163683898896  Exc = -124.72161718938281
cycle= 12 E= -834.823666454711  delta_E= -1.52e-07  |g|= 0.000117  |ddm|= 0.00107
    CPU time for cycle= 12     39.10 sec, wall time     16.01 sec
  HOMO = -0.0973671438585707  LUMO = -0.0420463464111934
  mo_energy =
[-1.00694937e+01 -1.00642415e+01 -1.00410221e+01 -1.00342451e+01
 -1.00323122e+01 -1.00313323e+01 -1.00271634e+01 -1.00250034e+01
 -1.00244364e+01 -1.00233581e+01 -1.00195653e+01 -1.00190610e+01
 -1.00165731e+01 -1.00158476e+01 -1.00103267e+01 -1.00100582e+01
 -1.00085789e+01 -1.00080568e+01 -1.00032485e+01 -9.99964969e+00
 -9.99811153e+00 -9.99630183e+00 -9.10347470e-01 -8.63492377e-01
 -8.48592423e-01 -7.82501232e-01 -7.66155390e-01 -7.45207318e-01
 -7.34613442e-01 -7.12271563e-01 -7.09447456e-01 -6.68089912e-01
 -6.48737351e-01 -6.30082666e-01 -6.12811365e-01 -6.06494128e-01
 -6.02967992e-01 -5.82037399e-01 -5.54194170e-01 -5.31746894e-01
 -5.01069964e-01 -4.90520689e-01 -4.72085674e-01 -4.64216836e-01
 -4.57203711e-01 -4.41932173e-01 -4.36298408e-01 -4.25204855e-01
 -4.17887954e-01 -3.98186151e-01 -3.89611072e-01 -3.77456603e-01
 -3.74467175e-01 -3.66413124e-01 -3.62552170e-01 -3.51332466e-01
 -3.43139679e-01 -3.27617752e-01 -3.10764980e-01 -3.01809732e-01
 -2.83734045e-01 -2.71539095e-01 -2.64262410e-01 -2.56924569e-01
 -2.30955161e-01 -2.26520452e-01 -2.18722438e-01 -2.11531856e-01
 -1.92113412e-01 -1.88215855e-01 -1.74342926e-01 -1.33944701e-01
 -9.73671439e-02 -4.20463464e-02  5.24415876e-03  3.13489877e-02
  6.23014585e-02  7.98082993e-02  9.71313140e-02  1.56019534e-01
  1.72798327e-01  2.13655839e-01  2.27271491e-01  2.30501109e-01
  2.57301484e-01  2.63057122e-01  2.67830368e-01  2.82772232e-01
  2.88115190e-01  2.95108189e-01  3.06619204e-01  3.23308513e-01
  3.34614617e-01  3.49073939e-01  3.67996125e-01  3.81393993e-01
  3.96693279e-01  4.07412274e-01  4.13288713e-01  4.18676039e-01
  4.38399382e-01  4.54110570e-01  4.77012337e-01  4.88475835e-01
  5.03186414e-01  5.55589847e-01  5.55877396e-01  5.85564564e-01
  6.24932522e-01  6.50896920e-01  6.53452337e-01  6.71983509e-01
  6.96294237e-01  7.12425573e-01  7.31467422e-01  7.57131332e-01
  7.93385985e-01  8.29939255e-01  8.70978040e-01  9.53758068e-01
  1.06549848e+00  1.07159780e+00  1.14320770e+00  1.25504252e+00]
nelec by numeric integration = 145.99999607849028
    CPU time for vxc     37.92 sec, wall time     15.81 sec
E1 = -4107.351634705903  Ecoul = 1898.415953593519  Exc = -124.72159582808857
cycle= 13 E= -834.823666450183  delta_E= 4.53e-09  |g|= 0.000159  |ddm|= 0.000445
    CPU time for cycle= 13     38.34 sec, wall time     15.88 sec
  HOMO = -0.0973681504727846  LUMO = -0.0420468774313059
  mo_energy =
[-1.00695127e+01 -1.00642527e+01 -1.00410210e+01 -1.00342528e+01
 -1.00323039e+01 -1.00313442e+01 -1.00271730e+01 -1.00250141e+01
 -1.00244558e+01 -1.00233519e+01 -1.00195525e+01 -1.00190630e+01
 -1.00165773e+01 -1.00158565e+01 -1.00103371e+01 -1.00100657e+01
 -1.00085665e+01 -1.00080261e+01 -1.00032732e+01 -9.99966373e+00
 -9.99812301e+00 -9.99630542e+00 -9.10359983e-01 -8.63492796e-01
 -8.48595112e-01 -7.82499616e-01 -7.66159218e-01 -7.45213760e-01
 -7.34619181e-01 -7.12274691e-01 -7.09449064e-01 -6.68095898e-01
 -6.48734628e-01 -6.30088100e-01 -6.12815842e-01 -6.06496090e-01
 -6.02973225e-01 -5.82035060e-01 -5.54196763e-01 -5.31750922e-01
 -5.01071845e-01 -4.90524055e-01 -4.72087700e-01 -4.64220167e-01
 -4.57203797e-01 -4.41931372e-01 -4.36302383e-01 -4.25209606e-01
 -4.17895307e-01 -3.98189663e-01 -3.89615151e-01 -3.77459858e-01
 -3.74466380e-01 -3.66416358e-01 -3.62555091e-01 -3.51333316e-01
 -3.43137120e-01 -3.27618846e-01 -3.10769293e-01 -3.01810794e-01
 -2.83732132e-01 -2.71538209e-01 -2.64265064e-01 -2.56929136e-01
 -2.30961801e-01 -2.26522178e-01 -2.18725939e-01 -2.11535844e-01
 -1.92113132e-01 -1.88220135e-01 -1.74349390e-01 -1.33948217e-01
 -9.73681505e-02 -4.20468774e-02  5.24142981e-03  3.13417204e-02
  6.22972000e-02  7.98081753e-02  9.71274967e-02  1.56014702e-01
  1.72800092e-01  2.13650903e-01  2.27266512e-01  2.30499905e-01
  2.57296747e-01  2.63057901e-01  2.67824635e-01  2.82771833e-01
  2.88108509e-01  2.95118089e-01  3.06616906e-01  3.23299799e-01
  3.34611533e-01  3.49078104e-01  3.67993180e-01  3.81394801e-01
  3.96689520e-01  4.07410220e-01  4.13287117e-01  4.18672038e-01
  4.38395854e-01  4.54110364e-01  4.77005400e-01  4.88472648e-01
  5.03184716e-01  5.55587097e-01  5.55873401e-01  5.85564338e-01
  6.24927340e-01  6.50890566e-01  6.53446134e-01  6.71988860e-01
  6.96296310e-01  7.12426827e-01  7.31458039e-01  7.57134899e-01
  7.93386212e-01  8.29941246e-01  8.70976685e-01  9.53753439e-01
  1.06548297e+00  1.07159142e+00  1.14319524e+00  1.25503573e+00]
nelec by numeric integration = 145.99999607847158
    CPU time for vxc     37.93 sec, wall time     15.80 sec
E1 = -4107.351883097951  Ecoul = 1898.4162129426907  Exc = -124.72160679468084
cycle= 14 E= -834.823666459652  delta_E= -9.47e-09  |g|= 3.51e-05  |ddm|= 0.000322
    CPU time for cycle= 14     38.60 sec, wall time     15.90 sec
  HOMO = -0.0973693751526702  LUMO = -0.0420476107910516
  mo_energy =
[-1.00695140e+01 -1.00642525e+01 -1.00410224e+01 -1.00342524e+01
 -1.00323053e+01 -1.00313480e+01 -1.00271766e+01 -1.00250182e+01
 -1.00244559e+01 -1.00233542e+01 -1.00195523e+01 -1.00190655e+01
 -1.00165795e+01 -1.00158543e+01 -1.00103355e+01 -1.00100666e+01
 -1.00085651e+01 -1.00080330e+01 -1.00032701e+01 -9.99966503e+00
 -9.99812976e+00 -9.99630224e+00 -9.10360512e-01 -8.63493672e-01
 -8.48596080e-01 -7.82501401e-01 -7.66159326e-01 -7.45214036e-01
 -7.34620531e-01 -7.12275216e-01 -7.09449474e-01 -6.68095583e-01
 -6.48736194e-01 -6.30088291e-01 -6.12816831e-01 -6.06496763e-01
 -6.02975000e-01 -5.82035363e-01 -5.54196959e-01 -5.31751365e-01
 -5.01072182e-01 -4.90524544e-01 -4.72088370e-01 -4.64220238e-01
 -4.57204375e-01 -4.41931668e-01 -4.36303235e-01 -4.25210132e-01
 -4.17895855e-01 -3.98190421e-01 -3.89616615e-01 -3.77459475e-01
 -3.74467221e-01 -3.66416410e-01 -3.62554864e-01 -3.51333835e-01
 -3.43137720e-01 -3.27619235e-01 -3.10770278e-01 -3.01811146e-01
 -2.83733222e-01 -2.71539211e-01 -2.64265244e-01 -2.56929900e-01
 -2.30963187e-01 -2.26522615e-01 -2.18726870e-01 -2.11536209e-01
 -1.92113276e-01 -1.88219942e-01 -1.74350687e-01 -1.33948606e-01
 -9.73693752e-02 -4.20476108e-02  5.24109132e-03  3.13397231e-02
  6.22961834e-02  7.98079201e-02  9.71270997e-02  1.56014589e-01
  1.72798735e-01  2.13651817e-01  2.27265584e-01  2.30499269e-01
  2.57296081e-01  2.63057017e-01  2.67822805e-01  2.82771063e-01
  2.88105640e-01  2.95117174e-01  3.06616662e-01  3.23299390e-01
  3.34611493e-01  3.49077483e-01  3.67993161e-01  3.81394290e-01
  3.96689370e-01  4.07410712e-01  4.13287014e-01  4.18672143e-01
  4.38396404e-01  4.54109944e-01  4.77005885e-01  4.88472413e-01
  5.03183880e-01  5.55587127e-01  5.55873248e-01  5.85563472e-01
  6.24926929e-01  6.50890193e-01  6.53443224e-01  6.71987741e-01
  6.96296079e-01  7.12426832e-01  7.31457688e-01  7.57133400e-01
  7.93385725e-01  8.29940454e-01  8.70976111e-01  9.53754164e-01
  1.06548224e+00  1.07158875e+00  1.14319477e+00  1.25503298e+00]
nelec by numeric integration = 145.9999960784733
    CPU time for vxc     38.18 sec, wall time     15.85 sec
E1 = -4107.35186167301  Ecoul = 1898.4161941617829  Exc = -124.72160943918038
cycle= 15 E= -834.823666460118  delta_E= -4.66e-10  |g|= 1.47e-05  |ddm|= 8.1e-05
    CPU time for cycle= 15     38.73 sec, wall time     15.94 sec
  HOMO = -0.0973698821446697  LUMO = -0.0420477385047646
  mo_energy =
[-1.00695147e+01 -1.00642531e+01 -1.00410230e+01 -1.00342539e+01
 -1.00323048e+01 -1.00313483e+01 -1.00271771e+01 -1.00250181e+01
 -1.00244569e+01 -1.00233563e+01 -1.00195539e+01 -1.00190664e+01
 -1.00165772e+01 -1.00158546e+01 -1.00103376e+01 -1.00100651e+01
 -1.00085683e+01 -1.00080336e+01 -1.00032726e+01 -9.99966522e+00
 -9.99812841e+00 -9.99630264e+00 -9.10361114e-01 -8.63494125e-01
 -8.48596438e-01 -7.82501652e-01 -7.66159926e-01 -7.45214386e-01
 -7.34620727e-01 -7.12275656e-01 -7.09450275e-01 -6.68096424e-01
 -6.48736198e-01 -6.30088719e-01 -6.12817280e-01 -6.06497039e-01
 -6.02974936e-01 -5.82035818e-01 -5.54197283e-01 -5.31751876e-01
 -5.01072528e-01 -4.90525026e-01 -4.72088910e-01 -4.64220666e-01
 -4.57204751e-01 -4.41932185e-01 -4.36303491e-01 -4.25210532e-01
 -4.17896327e-01 -3.98190730e-01 -3.89616834e-01 -3.77459856e-01
 -3.74467559e-01 -3.66416571e-01 -3.62555438e-01 -3.51334231e-01
 -3.43138050e-01 -3.27619706e-01 -3.10770415e-01 -3.01811316e-01
 -2.83733534e-01 -2.71539513e-01 -2.64265747e-01 -2.56930240e-01
 -2.30963310e-01 -2.26523096e-01 -2.18727236e-01 -2.11536660e-01
 -1.92114106e-01 -1.88220167e-01 -1.74350811e-01 -1.33949199e-01
 -9.73698821e-02 -4.20477385e-02  5.24051168e-03  3.13398625e-02
  6.22955498e-02  7.98070692e-02  9.71266667e-02  1.56013996e-01
  1.72798416e-01  2.13651586e-01  2.27265344e-01  2.30499059e-01
  2.57295761e-01  2.63056539e-01  2.67822648e-01  2.82770890e-01
  2.88105897e-01  2.95116607e-01  3.06616223e-01  3.23298861e-01
  3.34611179e-01  3.49077039e-01  3.67992924e-01  3.81393925e-01
  3.96688906e-01  4.07409813e-01  4.13286516e-01  4.18671803e-01
  4.38395493e-01  4.54109353e-01  4.77004928e-01  4.88471900e-01
  5.03184388e-01  5.55586537e-01  5.55872574e-01  5.85563113e-01
  6.24926867e-01  6.50889989e-01  6.53443699e-01  6.71987429e-01
  6.96295426e-01  7.12425851e-01  7.31456969e-01  7.57133503e-01
  7.93385173e-01  8.29939997e-01  8.70975534e-01  9.53753477e-01
  1.06548157e+00  1.07158849e+00  1.14319420e+00  1.25503308e+00]
nelec by numeric integration = 145.99999607847377
    CPU time for vxc     37.76 sec, wall time     15.72 sec
E1 = -4107.351933501936  Ecoul = 1898.4162671683082  Exc = -124.72161061684365
cycle= 16 E= -834.823666460182  delta_E= -6.46e-11  |g|= 9.65e-06  |ddm|= 4.13e-05
    CPU time for cycle= 16     38.25 sec, wall time     15.80 sec
  HOMO = -0.0973696242929291  LUMO = -0.042047509378313
  mo_energy =
[-1.00695131e+01 -1.00642517e+01 -1.00410228e+01 -1.00342527e+01
 -1.00323069e+01 -1.00313472e+01 -1.00271752e+01 -1.00250181e+01
 -1.00244566e+01 -1.00233525e+01 -1.00195531e+01 -1.00190655e+01
 -1.00165840e+01 -1.00158546e+01 -1.00103372e+01 -1.00100652e+01
 -1.00085621e+01 -1.00080336e+01 -1.00032695e+01 -9.99966522e+00
 -9.99812878e+00 -9.99630416e+00 -9.10360117e-01 -8.63494213e-01
 -8.48596514e-01 -7.82501718e-01 -7.66159565e-01 -7.45213746e-01
 -7.34620585e-01 -7.12275367e-01 -7.09449411e-01 -6.68095776e-01
 -6.48736727e-01 -6.30087965e-01 -6.12816313e-01 -6.06496966e-01
 -6.02974766e-01 -5.82035811e-01 -5.54197185e-01 -5.31751590e-01
 -5.01072454e-01 -4.90524510e-01 -4.72088036e-01 -4.64220210e-01
 -4.57204532e-01 -4.41931418e-01 -4.36303175e-01 -4.25210227e-01
 -4.17895772e-01 -3.98190659e-01 -3.89616313e-01 -3.77459747e-01
 -3.74467727e-01 -3.66416621e-01 -3.62555019e-01 -3.51334096e-01
 -3.43137929e-01 -3.27619330e-01 -3.10770106e-01 -3.01811597e-01
 -2.83733543e-01 -2.71539586e-01 -2.64265534e-01 -2.56929787e-01
 -2.30962941e-01 -2.26522439e-01 -2.18726524e-01 -2.11536363e-01
 -1.92113154e-01 -1.88220184e-01 -1.74350666e-01 -1.33948611e-01
 -9.73696243e-02 -4.20475094e-02  5.24103719e-03  3.13400062e-02
  6.22965039e-02  7.98079146e-02  9.71267890e-02  1.56014259e-01
  1.72798586e-01  2.13651485e-01  2.27265586e-01  2.30499597e-01
  2.57296053e-01  2.63056624e-01  2.67823116e-01  2.82770967e-01
  2.88106087e-01  2.95116975e-01  3.06616454e-01  3.23299522e-01
  3.34611630e-01  3.49077305e-01  3.67993129e-01  3.81394716e-01
  3.96689717e-01  4.07410935e-01  4.13286928e-01  4.18672312e-01
  4.38396320e-01  4.54109577e-01  4.77005557e-01  4.88472134e-01
  5.03182799e-01  5.55586923e-01  5.55873374e-01  5.85563199e-01
  6.24927402e-01  6.50890200e-01  6.53443724e-01  6.71987013e-01
  6.96295990e-01  7.12426805e-01  7.31457308e-01  7.57132290e-01
  7.93385271e-01  8.29939791e-01  8.70975704e-01  9.53753764e-01
  1.06548236e+00  1.07158931e+00  1.14319538e+00  1.25503309e+00]
nelec by numeric integration = 145.99999607847414
    CPU time for vxc     38.12 sec, wall time     15.75 sec
E1 = -4107.351924626926  Ecoul = 1898.4162573548465  Exc = -124.72160967805584
Extra cycle  E= -834.823666459846  delta_E= 3.37e-10  |g|= 3.13e-05  |ddm|= 6.58e-05
    CPU time for scf_cycle    704.16 sec, wall time    288.86 sec
    CPU time for SCF    704.16 sec, wall time    288.86 sec
converged SCF energy = -834.823666459846
nelec by numeric integration = 145.99999607847414
    CPU time for vxc     37.99 sec, wall time     15.78 sec
 ** Mulliken pop  **
pop of  0 C 1s            1.99060
pop of  0 C 2s            0.93854
pop of  0 C 2px           1.05777
pop of  0 C 2py           1.07147
pop of  0 C 2pz           1.09374
pop of  1 C 1s            1.99119
pop of  1 C 2s            1.01697
pop of  1 C 2px           1.00028
pop of  1 C 2py           0.97374
pop of  1 C 2pz           0.99432
pop of  2 C 1s            1.99207
pop of  2 C 2s            1.12039
pop of  2 C 2px           0.96620
pop of  2 C 2py           0.93781
pop of  2 C 2pz           0.97005
pop of  3 C 1s            1.99076
pop of  3 C 2s            1.14488
pop of  3 C 2px           1.01371
pop of  3 C 2py           0.91599
pop of  3 C 2pz           0.97777
pop of  4 C 1s            1.99144
pop of  4 C 2s            1.21748
pop of  4 C 2px           0.93460
pop of  4 C 2py           0.88752
pop of  4 C 2pz           0.96505
pop of  5 C 1s            1.99160
pop of  5 C 2s            1.24674
pop of  5 C 2px           0.97279
pop of  5 C 2py           0.87454
pop of  5 C 2pz           0.97778
pop of  6 C 1s            1.99370
pop of  6 C 2s            1.13459
pop of  6 C 2px           1.04113
pop of  6 C 2py           1.05632
pop of  6 C 2pz           0.98840
pop of  7 C 1s            1.99234
pop of  7 C 2s            1.29458
pop of  7 C 2px           0.92496
pop of  7 C 2py           0.93518
pop of  7 C 2pz           0.93240
pop of  8 C 1s            1.99165
pop of  8 C 2s            1.20636
pop of  8 C 2px           0.92177
pop of  8 C 2py           0.92181
pop of  8 C 2pz           0.94632
pop of  9 C 1s            1.99197
pop of  9 C 2s            1.22704
pop of  9 C 2px           0.93416
pop of  9 C 2py           0.94921
pop of  9 C 2pz           0.90887
pop of  10 C 1s           1.99059
pop of  10 C 2s           1.07113
pop of  10 C 2px          1.04990
pop of  10 C 2py          0.98267
pop of  10 C 2pz          1.06120
pop of  11 C 1s           1.99115
pop of  11 C 2s           1.07654
pop of  11 C 2px          1.00640
pop of  11 C 2py          1.00438
pop of  11 C 2pz          0.97946
pop of  12 C 1s           1.99102
pop of  12 C 2s           1.10202
pop of  12 C 2px          0.96941
pop of  12 C 2py          0.94354
pop of  12 C 2pz          0.96264
pop of  13 C 1s           1.99036
pop of  13 C 2s           1.09095
pop of  13 C 2px          1.01378
pop of  13 C 2py          0.99072
pop of  13 C 2pz          0.95393
pop of  14 C 1s           1.99153
pop of  14 C 2s           1.22271
pop of  14 C 2px          0.96072
pop of  14 C 2py          0.92034
pop of  14 C 2pz          0.93723
pop of  15 C 1s           1.99140
pop of  15 C 2s           1.23586
pop of  15 C 2px          0.95816
pop of  15 C 2py          0.90536
pop of  15 C 2pz          0.95536
pop of  16 C 1s           1.99014
pop of  16 C 2s           1.05614
pop of  16 C 2px          1.03324
pop of  16 C 2py          1.00180
pop of  16 C 2pz          0.97889
pop of  17 C 1s           1.99122
pop of  17 C 2s           1.18413
pop of  17 C 2px          0.94028
pop of  17 C 2py          0.93123
pop of  17 C 2pz          0.93215
pop of  18 C 1s           1.99080
pop of  18 C 2s           1.13707
pop of  18 C 2px          0.96094
pop of  18 C 2py          0.95135
pop of  18 C 2pz          0.99135
pop of  19 C 1s           1.99127
pop of  19 C 2s           1.17879
pop of  19 C 2px          1.03016
pop of  19 C 2py          0.92659
pop of  19 C 2pz          0.96766
pop of  20 C 1s           1.99097
pop of  20 C 2s           1.06825
pop of  20 C 2px          1.03203
pop of  20 C 2py          0.99994
pop of  20 C 2pz          1.03131
pop of  21 C 1s           1.99164
pop of  21 C 2s           1.08184
pop of  21 C 2px          0.98675
pop of  21 C 2py          0.98724
pop of  21 C 2pz          0.99898
pop of  22 H 1s           0.94452
pop of  23 H 1s           0.91550
pop of  24 H 1s           0.91430
pop of  25 H 1s           0.88754
pop of  26 H 1s           0.90010
pop of  27 H 1s           0.89756
pop of  28 H 1s           0.87765
pop of  29 H 1s           0.97879
pop of  30 H 1s           0.94041
pop of  31 H 1s           0.92974
pop of  32 H 1s           0.92946
pop of  33 H 1s           0.88528
pop of  34 H 1s           0.90184
pop of  35 H 1s           0.95217
 ** Mulliken atomic charges  **
charge of    0C =     -0.15212
charge of    1C =      0.02350
charge of    2C =      0.01349
charge of    3C =     -0.04311
charge of    4C =      0.00391
charge of    5C =     -0.06345
charge of    6C =     -0.21414
charge of    7C =     -0.07945
charge of    8C =      0.01210
charge of    9C =     -0.01126
charge of   10C =     -0.15549
charge of   11C =     -0.05794
charge of   12C =      0.03137
charge of   13C =     -0.03974
charge of   14C =     -0.03253
charge of   15C =     -0.04615
charge of   16C =     -0.06021
charge of   17C =      0.02099
charge of   18C =     -0.03150
charge of   19C =     -0.09447
charge of   20C =     -0.12250
charge of   21C =     -0.04645
charge of   22H =      0.05548
charge of   23H =      0.08450
charge of   24H =      0.08570
charge of   25H =      0.11246
charge of   26H =      0.09990
charge of   27H =      0.10244
charge of   28H =      0.12235
charge of   29H =      0.02121
charge of   30H =      0.05959
charge of   31H =      0.07026
charge of   32H =      0.07054
charge of   33H =      0.11472
charge of   34H =      0.09816
charge of   35H =      0.04783
Dipole moment(X, Y, Z, Debye): -0.00260, -1.07185,  0.26741
nelec by numeric integration = 145.99999607847414
    CPU time for vxc     37.84 sec, wall time     15.76 sec
E1 = -4107.351924626926  Ecoul = 1898.4162573548467  Exc = -124.72160967805584
nelec by numeric integration = 145.99999607847414
    CPU time for vxc     37.21 sec, wall time     15.72 sec
E1 = -4107.351924626926  Ecoul = 1898.4162573548465  Exc = -124.72160967805586
