System: uname_result(system='Linux', node='cosmopc18', release='5.15.0-97-generic', version='#107-Ubuntu SMP Wed Feb 7 13:26:48 UTC 2024', machine='x86_64')  Threads 4
Python 3.11.8 (main, Feb 26 2024, 21:39:34) [GCC 11.2.0]
numpy 1.26.4  scipy 1.11.4
Date: Tue Apr  9 16:03:50 2024
PySCF version 2.3.0
PySCF path  /home/saade/miniconda3/envs/tutorial/lib/python3.11/site-packages/pyscf

[ENV] PYSCFAD_BACKEND torch
[CONFIG] conf_file None
[INPUT] verbose = 5
[INPUT] max_memory = 4000 
[INPUT] num. atoms = 36
[INPUT] num. electrons = 146
[INPUT] charge = 0
[INPUT] spin (= nelec alpha-beta = 2S) = 0
[INPUT] symmetry False subgroup None
[INPUT] Mole.unit = angstrom
[INPUT] Symbol           X                Y                Z      unit          X                Y                Z       unit  Magmom
[INPUT]  1 C     -0.003228000000   3.734343000000   0.471890000000 AA   -0.006100035930   7.056885525187   0.891742860921 Bohr   0.0
[INPUT]  2 C      0.014141000000   3.495985000000  -0.900675000000 AA    0.026722617127   6.606454185588  -1.702029077243 Bohr   0.0
[INPUT]  3 C      0.065123000000   4.879195000000   1.328464000000 AA    0.123064634410   9.220342258347   2.510433126344 Bohr   0.0
[INPUT]  4 C      0.012368000000   2.453171000000   1.576809000000 AA    0.023372132709   4.635821326725   2.979737160749 Bohr   0.0
[INPUT]  5 C      0.089064000000   4.828405000000  -1.290085000000 AA    0.168306567558   9.124363068481  -2.437907327410 Bohr   0.0
[INPUT]  6 C     -0.100463000000   2.478513000000  -1.330407000000 AA   -0.189847555652   4.683710766174  -2.514104864204 Bohr   0.0
[INPUT]  7 C      0.032010000000   5.914264000000  -0.530494000000 AA    0.060490133247  11.176339188375  -1.002488370725 Bohr   0.0
[INPUT]  8 C     -0.085325000000   6.029257000000   0.851403000000 AA   -0.161240881579  11.393644464617   1.608918491633 Bohr   0.0
[INPUT]  9 C     -0.151815000000   1.145166000000   0.829655000000 AA   -0.286888771601   2.164050107164   1.567820727876 Bohr   0.0
[INPUT] 10 C     -0.044724000000   1.043790000000  -0.605621000000 AA   -0.084516111195   1.972477231560  -1.144457825285 Bohr   0.0
[INPUT] 11 C     -0.143821000000   0.023933000000   1.294325000000 AA   -0.271782300961   0.045226815339   2.445919766178 Bohr   0.0
[INPUT] 12 C      0.008982000000  -0.025418000000  -1.368934000000 AA    0.016973520051  -0.048033058634  -2.586910342605 Bohr   0.0
[INPUT] 13 C      0.031748000000  -1.121515000000   0.803417000000 AA    0.059995025003  -2.119356194592   1.518238093820 Bohr   0.0
[INPUT] 14 C      0.094396000000  -1.172351000000  -0.656348000000 AA    0.178382587254  -2.215422311860  -1.240317962406 Bohr   0.0
[INPUT] 15 C      0.000995000000  -2.594839000000   1.603604000000 AA    0.001880277494  -4.903535047340   3.030372372257 Bohr   0.0
[INPUT] 16 C      0.008904000000  -2.546284000000  -1.448933000000 AA    0.016826121413  -4.811779395362  -2.738086542844 Bohr   0.0
[INPUT] 17 C      0.056796000000  -3.794740000000   0.897360000000 AA    0.107328884971  -7.171019313932   1.695764635140 Bohr   0.0
[INPUT] 18 C      0.020163000000  -3.597438000000  -0.809012000000 AA    0.038102547850  -6.798172570103  -1.528811111487 Bohr   0.0
[INPUT] 19 C      0.118294000000  -4.866977000000   1.361527000000 AA    0.223543262179  -9.197253584557   2.572913141201 Bohr   0.0
[INPUT] 20 C     -0.018120000000  -5.095326000000  -1.382609000000 AA   -0.034241837377  -9.628770655376  -2.612752347359 Bohr   0.0
[INPUT] 21 C      0.201399000000  -6.262438000000   0.510588000000 AA    0.380588951761 -11.834292692069   0.964871482489 Bohr   0.0
[INPUT] 22 C     -0.229561000000  -6.111644000000  -0.645614000000 AA   -0.433807418881 -11.549333330841  -1.220033642185 Bohr   0.0
[INPUT] 23 H     -0.045602000000   5.110334000000   2.548693000000 AA   -0.086175290732   9.657131665053   4.816331745596 Bohr   0.0
[INPUT] 24 H     -0.059273000000   2.359184000000   2.420573000000 AA   -0.112009736581   4.458211637456   4.574220034517 Bohr   0.0
[INPUT] 25 H      0.122300000000   5.091610000000  -2.640744000000 AA    0.231113505034   9.621748433097  -4.990282925088 Bohr   0.0
[INPUT] 26 H      0.148006000000   2.361893000000  -2.505495000000 AA    0.279690804792   4.463330905527  -4.734699356467 Bohr   0.0
[INPUT] 27 H      0.127075000000   7.032825000000  -1.444993000000 AA    0.240136947279  13.290113131994  -2.730641021914 Bohr   0.0
[INPUT] 28 H     -0.059743000000   7.143327000000   1.230597000000 AA   -0.112897907860  13.498931648211   2.325491299711 Bohr   0.0
[INPUT] 29 H     -0.015091000000   0.083321000000   2.725155000000 AA   -0.028517856946   0.157453870425   5.149796596989 Bohr   0.0
[INPUT] 30 H     -0.201946000000  -0.187325000000  -2.496070000000 AA   -0.381622631951  -0.353992946284  -4.716888687743 Bohr   0.0
[INPUT] 31 H     -0.030779000000  -2.537787000000   2.451718000000 AA   -0.058163880388  -4.795722392482   4.633075554666 Bohr   0.0
[INPUT] 32 H     -0.003154000000  -2.530069000000  -2.494196000000 AA   -0.005960196197  -4.781137486252  -4.713347340986 Bohr   0.0
[INPUT] 33 H     -0.003323000000  -4.879786000000   2.639319000000 AA   -0.006279559912  -9.221459086487   4.987590065361 Bohr   0.0
[INPUT] 34 H      0.047275000000  -4.814931000000  -2.361223000000 AA    0.089336802539  -9.098900898678  -4.462064789024 Bohr   0.0
[INPUT] 35 H     -0.025724000000  -7.196791000000   1.120538000000 AA   -0.048611314828 -13.599963965735   2.117509932168 Bohr   0.0
[INPUT] 36 H      0.096764000000  -6.916480000000  -1.199867000000 AA    0.182857458717 -13.070252946032  -2.267420015904 Bohr   0.0
[INPUT] ---------------- BASIS SET ---------------- 
[INPUT] l, kappa, [nprim/nctr], expnt,             c_1 c_2 ...
[INPUT] H
[INPUT] 0    0    [3    /1   ]  3.42525091        0.15432897
                                0.62391373        0.53532814
                                0.1688554         0.44463454
[INPUT] C
[INPUT] 0    0    [3    /1   ]  71.616837         0.15432897
                                13.045096         0.53532814
                                3.5305122         0.44463454
[INPUT] 0    0    [3    /1   ]  2.9412494         -0.09996723
                                0.6834831         0.39951283
                                0.2222899         0.70011547
[INPUT] 1    0    [3    /1   ]  2.9412494         0.15591627
                                0.6834831         0.60768372
                                0.2222899         0.39195739

nuclear repulsion = 1499.81932595555
number of shells = 80
number of NR pGTOs = 372
number of NR cGTOs = 124
basis = sto3g
ecp = {}
CPU time:     55867.57
atom C rad-grids = 99, ang-grids = [ 50  50  50  50  50  50  50  50  50  50  50  50  50  50  50  50  50  50
  50  50  50  50  50  50  50  50  50  50  50  50  50  86  86  86  86  86
  86  86  86  86  86  86  86 434 434 434 434 434 434 434 434 434 590 590
 590 590 590 590 590 590 590 590 590 590 590 590 590 590 590 590 590 590
 590 590 590 590 590 590 590 434 434 434 434 434 434 434 434 434 434 434
 434 434 434 434 434 434 434 434 434]
atom H rad-grids = 99, ang-grids = [ 50  50  50  50  50  50  50  50  50  50  50  50  50  50  50  50  50  50
  50  50  50  50  50  50  50  50  50  50  86  86  86  86  86  86  86 434
 434 434 434 434 434 434 434 590 590 590 590 590 590 590 590 590 590 590
 590 590 590 590 590 590 590 590 590 590 590 590 590 590 590 434 434 434
 434 434 434 434 434 434 434 434 434 434 434 434 434 434 434 434 434 434
 434 434 434 434 434 434 434 434 434]
tot_boxes 5440, boxes in each direction [ 8 30 15]
Padding 0 grids
tot grids = 1157832


******** <class 'pyscf.dft.rks.RKS'> ********
method = RKS
initial guess = minao
damping factor = 0
level_shift factor = 0
DIIS = <class 'pyscf.scf.diis.CDIIS'>
diis_start_cycle = 1
diis_space = 8
SCF conv_tol = 1e-10
SCF conv_tol_grad = None
SCF max_cycles = 50
direct_scf = True
direct_scf_tol = 1e-13
chkfile to save SCF result = /home/saade/mlelec/tutorials/tmpqydyfnk5
max_memory 4000 MB (current use 690 MB)
XC library pyscf.dft.libxc version 6.1.0
    S. Lehtola, C. Steigemann, M. J.T. Oliveira, and M. A.L. Marques.,  SoftwareX 7, 1–5 (2018)
XC functionals = b3lypg
    P. J. Stephens, F. J. Devlin, C. F. Chabalowski, and M. J. Frisch.,  J. Phys. Chem. 98, 11623 (1994)
radial grids: 
    Treutler-Ahlrichs [JCP 102, 346 (1995); DOI:10.1063/1.469408] (M4) radial grids
    
becke partition: Becke, JCP 88, 2547 (1988); DOI:10.1063/1.454033
pruning grids: <function nwchem_prune at 0x7f9db5616ca0>
grids dens level: 3
symmetrized grids: False
atomic radii adjust function: <function treutler_atomic_radii_adjust at 0x7f9db5617380>
User specified grid scheme (99, 590)
small_rho_cutoff = 1e-07
Set gradient conv threshold to 1e-05
Initial guess from minao.
nelec by numeric integration = 145.27193003548902
    CPU time for vxc     37.47 sec, wall time     15.64 sec
E1 = -4098.9081504315  Ecoul = 1883.549680434727  Exc = -126.16887196462301
init E= -841.708016005848
cond(S) = 28.754949615781886
    CPU time for initialize scf     47.56 sec, wall time     18.07 sec
  HOMO = -0.207843311758049  LUMO = -0.160474857101595
  mo_energy =
[-1.01716683e+01 -1.01419873e+01 -1.01417900e+01 -1.01393735e+01
 -1.01288152e+01 -1.01282082e+01 -1.01165129e+01 -1.01153767e+01
 -1.01130476e+01 -1.01079317e+01 -1.01077045e+01 -1.01044178e+01
 -1.01033508e+01 -1.01029420e+01 -1.01024407e+01 -1.00997458e+01
 -1.00964220e+01 -1.00961125e+01 -1.00914097e+01 -1.00895628e+01
 -1.00855836e+01 -1.00820474e+01 -1.11793043e+00 -1.08845633e+00
 -1.06272017e+00 -1.00606110e+00 -9.87875493e-01 -9.70350988e-01
 -9.27145961e-01 -9.03630347e-01 -8.53752402e-01 -8.37043239e-01
 -8.13106957e-01 -7.85052634e-01 -7.53773528e-01 -7.12838220e-01
 -6.87085713e-01 -6.61932523e-01 -6.43380876e-01 -6.32365255e-01
 -6.14765723e-01 -5.87082839e-01 -5.66379498e-01 -5.65164913e-01
 -5.41878945e-01 -5.30538731e-01 -5.24226530e-01 -5.05702029e-01
 -4.95411927e-01 -4.89034604e-01 -4.80815882e-01 -4.66634118e-01
 -4.58710916e-01 -4.49714104e-01 -4.41755273e-01 -4.24785542e-01
 -4.12948237e-01 -4.01465224e-01 -3.97157649e-01 -3.89153465e-01
 -3.84627231e-01 -3.76476224e-01 -3.71275269e-01 -3.66729767e-01
 -3.57019573e-01 -3.31746482e-01 -3.16440667e-01 -3.06547882e-01
 -2.88076373e-01 -2.83028040e-01 -2.73447870e-01 -2.31728969e-01
 -2.07843312e-01 -1.60474857e-01 -1.32307130e-01 -6.21757991e-02
 -2.31387454e-02 -1.30415028e-02  7.62937452e-03  2.92621483e-02
  3.42444918e-02  4.10679887e-02  4.46476790e-02  6.03476017e-02
  9.71767830e-02  1.16443643e-01  1.27380867e-01  1.37275524e-01
  1.47570360e-01  1.47979868e-01  1.60307443e-01  1.71899091e-01
  1.87780465e-01  1.94635347e-01  2.18255706e-01  2.33140073e-01
  2.35552413e-01  2.51272252e-01  2.61070831e-01  2.89415941e-01
  3.04933574e-01  3.58485451e-01  3.69671685e-01  3.87063182e-01
  4.15870573e-01  4.46397026e-01  4.52570074e-01  4.77992406e-01
  4.91768386e-01  5.15454757e-01  5.37521824e-01  5.60364901e-01
  6.20495829e-01  6.30847733e-01  6.75132551e-01  6.78744663e-01
  6.99507022e-01  7.08739849e-01  7.32587829e-01  7.48499931e-01
  7.71130410e-01  8.47862687e-01  8.94248713e-01  9.90993247e-01]
nelec by numeric integration = 146.00000250831852
    CPU time for vxc     38.25 sec, wall time     15.93 sec
E1 = -4113.494708313447  Ecoul = 1903.2838120729714  Exc = -124.79657310476418
cycle= 1 E= -835.188143389691  delta_E= 6.52  |g|= 0.326  |ddm|= 9.36
    CPU time for cycle= 1     38.57 sec, wall time     15.98 sec
  HOMO = -0.09630384459918  LUMO = -0.00739446006001965
  mo_energy =
[-1.00916896e+01 -1.00425335e+01 -1.00291056e+01 -1.00272202e+01
 -1.00259428e+01 -9.99969924e+00 -9.99570523e+00 -9.99515547e+00
 -9.98744891e+00 -9.98489046e+00 -9.98389279e+00 -9.98375088e+00
 -9.98172726e+00 -9.97952092e+00 -9.97815145e+00 -9.97664890e+00
 -9.96905212e+00 -9.95889449e+00 -9.94882593e+00 -9.94828527e+00
 -9.94406372e+00 -9.92246923e+00 -8.54151215e-01 -8.39003871e-01
 -8.27603734e-01 -7.76202788e-01 -7.61689376e-01 -7.46804415e-01
 -7.25255605e-01 -7.00008866e-01 -6.72286948e-01 -6.63048130e-01
 -6.51548768e-01 -6.22576086e-01 -6.02642010e-01 -5.58197873e-01
 -5.42320169e-01 -5.29078863e-01 -5.13977721e-01 -5.05081105e-01
 -4.89627158e-01 -4.78687081e-01 -4.52047251e-01 -4.45802038e-01
 -4.31281883e-01 -4.26591942e-01 -4.07188623e-01 -3.96906297e-01
 -3.75458802e-01 -3.70820885e-01 -3.61241967e-01 -3.51863734e-01
 -3.48389677e-01 -3.36653669e-01 -3.26112319e-01 -3.18477958e-01
 -3.13859095e-01 -3.07354088e-01 -2.95212201e-01 -2.89506418e-01
 -2.68254108e-01 -2.68195826e-01 -2.64502960e-01 -2.52645027e-01
 -2.46602697e-01 -2.16341250e-01 -2.11824774e-01 -1.95894156e-01
 -1.90784234e-01 -1.89386144e-01 -1.67195716e-01 -1.17874721e-01
 -9.63038446e-02 -7.39446006e-03  1.33904314e-02  9.43264335e-02
  1.25401639e-01  1.37084226e-01  1.56464283e-01  1.65085516e-01
  1.94179314e-01  1.98483760e-01  2.05591322e-01  2.18788439e-01
  2.36032542e-01  2.66681527e-01  2.74796254e-01  2.84773329e-01
  2.90857092e-01  2.96618015e-01  3.19339957e-01  3.29429203e-01
  3.48249182e-01  3.50344284e-01  3.60301784e-01  3.73993569e-01
  3.89705477e-01  3.98041444e-01  4.18728105e-01  4.33378381e-01
  4.68641125e-01  4.92807682e-01  5.05173821e-01  5.25233778e-01
  5.73650581e-01  5.84308318e-01  6.14931320e-01  6.18628537e-01
  6.45252012e-01  6.77571594e-01  7.01196712e-01  7.13373572e-01
  7.82014367e-01  7.93392115e-01  8.19967323e-01  8.27407531e-01
  8.52318008e-01  8.57329160e-01  8.99552174e-01  9.12083413e-01
  9.29043534e-01  1.03982870e+00  1.08024708e+00  1.19967598e+00]
nelec by numeric integration = 146.00000260583303
    CPU time for vxc     39.13 sec, wall time     16.29 sec
E1 = -4106.6894472335825  Ecoul = 1896.3690450659556  Exc = -124.6310530735389
cycle= 2 E= -835.132129285617  delta_E= 0.056  |g|= 0.494  |ddm|= 1.33
    CPU time for cycle= 2     39.68 sec, wall time     16.37 sec
  HOMO = -0.111562551132821  LUMO = -0.027229222775601
  mo_energy =
[-1.00719564e+01 -1.00430441e+01 -1.00369988e+01 -1.00368461e+01
 -1.00343978e+01 -1.00332182e+01 -1.00329386e+01 -1.00301156e+01
 -1.00275409e+01 -1.00260681e+01 -1.00185224e+01 -1.00089568e+01
 -1.00084047e+01 -1.00029899e+01 -9.99674863e+00 -9.99642141e+00
 -9.99532322e+00 -9.99038255e+00 -9.98817977e+00 -9.97879950e+00
 -9.96470703e+00 -9.95592805e+00 -8.78264321e-01 -8.57835851e-01
 -8.30863473e-01 -7.95866210e-01 -7.79662971e-01 -7.71573248e-01
 -7.39835768e-01 -7.29751559e-01 -6.91045685e-01 -6.79093580e-01
 -6.67463876e-01 -6.32326373e-01 -6.16410287e-01 -5.80554222e-01
 -5.61849301e-01 -5.42655553e-01 -5.19824528e-01 -5.15505328e-01
 -5.00658393e-01 -4.77905759e-01 -4.68221360e-01 -4.59303716e-01
 -4.40667354e-01 -4.36895700e-01 -4.24828611e-01 -4.08511066e-01
 -3.99233458e-01 -3.89642792e-01 -3.83627280e-01 -3.70576142e-01
 -3.59745112e-01 -3.55511000e-01 -3.38032534e-01 -3.35036827e-01
 -3.19719344e-01 -3.13169271e-01 -3.08036268e-01 -2.97358485e-01
 -2.93324097e-01 -2.85423270e-01 -2.75082748e-01 -2.72103525e-01
 -2.61199020e-01 -2.40046756e-01 -2.26738352e-01 -2.13821291e-01
 -2.06612647e-01 -1.95116998e-01 -1.82441938e-01 -1.33181036e-01
 -1.11562551e-01 -2.72292228e-02 -8.58145801e-04  6.95380121e-02
  1.17325037e-01  1.21876093e-01  1.53729889e-01  1.65374487e-01
  1.66892336e-01  1.76146203e-01  1.85875822e-01  1.99081601e-01
  2.27997663e-01  2.59621820e-01  2.63950488e-01  2.69193124e-01
  2.74613518e-01  2.85592812e-01  3.01280980e-01  3.08809869e-01
  3.27375956e-01  3.41551478e-01  3.51700941e-01  3.56777776e-01
  3.70991725e-01  3.90986047e-01  4.05684978e-01  4.26850055e-01
  4.41383340e-01  4.93135461e-01  5.02603781e-01  5.21796809e-01
  5.47786091e-01  5.93015374e-01  6.00016747e-01  6.19214549e-01
  6.34856465e-01  6.50453036e-01  6.72178531e-01  6.95808035e-01
  7.36549407e-01  7.61279022e-01  7.95775493e-01  8.39940498e-01
  8.40646862e-01  8.66410152e-01  8.79706805e-01  8.91856391e-01
  9.35474046e-01  9.88386198e-01  1.02912927e+00  1.15770284e+00]
nelec by numeric integration = 146.00000249560702
    CPU time for vxc     38.21 sec, wall time     15.73 sec
E1 = -4110.465410483015  Ecoul = 1900.1628940296498  Exc = -124.66965504104974
cycle= 3 E= -835.152845538867  delta_E= -0.0207  |g|= 0.425  |ddm|= 1.52
    CPU time for cycle= 3     38.67 sec, wall time     15.80 sec
  HOMO = -0.110485032648424  LUMO = -0.0322403282260452
  mo_energy =
[-1.00502314e+01 -1.00349228e+01 -1.00316102e+01 -1.00301904e+01
 -1.00298015e+01 -1.00288400e+01 -1.00268969e+01 -1.00267738e+01
 -1.00221326e+01 -1.00204132e+01 -1.00188817e+01 -1.00180594e+01
 -1.00180508e+01 -1.00165922e+01 -1.00136462e+01 -1.00130801e+01
 -1.00119643e+01 -1.00111241e+01 -1.00095933e+01 -1.00089234e+01
 -1.00055165e+01 -1.00013022e+01 -8.77875423e-01 -8.62040986e-01
 -8.39979715e-01 -8.04909948e-01 -7.89284868e-01 -7.74228091e-01
 -7.45836517e-01 -7.26395660e-01 -6.91506348e-01 -6.81500944e-01
 -6.61692400e-01 -6.43432682e-01 -6.22785548e-01 -5.81840021e-01
 -5.61469282e-01 -5.42126776e-01 -5.29152858e-01 -5.17716417e-01
 -5.07189324e-01 -4.88242775e-01 -4.68335343e-01 -4.62322895e-01
 -4.45505227e-01 -4.40008358e-01 -4.29411200e-01 -4.14223538e-01
 -3.98921071e-01 -3.89696583e-01 -3.88129830e-01 -3.71808221e-01
 -3.66533828e-01 -3.58737930e-01 -3.46172220e-01 -3.35316230e-01
 -3.26589977e-01 -3.17689978e-01 -3.12032350e-01 -3.02235656e-01
 -2.95274247e-01 -2.91405066e-01 -2.78929309e-01 -2.74854855e-01
 -2.72712710e-01 -2.38133282e-01 -2.28208974e-01 -2.14120468e-01
 -2.09523636e-01 -2.05206141e-01 -1.84165691e-01 -1.37210292e-01
 -1.10485033e-01 -3.22403282e-02 -3.86976313e-03  7.15828122e-02
  1.13033817e-01  1.17548126e-01  1.43401138e-01  1.64428527e-01
  1.69055948e-01  1.73813963e-01  1.80090870e-01  1.96453502e-01
  2.25790682e-01  2.55951849e-01  2.63906756e-01  2.68103422e-01
  2.72718422e-01  2.81688585e-01  2.97196414e-01  3.08221525e-01
  3.24581881e-01  3.37489693e-01  3.50899556e-01  3.53453956e-01
  3.65941204e-01  3.90305108e-01  3.98702728e-01  4.10999865e-01
  4.44801705e-01  4.92476024e-01  4.97717221e-01  5.06633345e-01
  5.51164982e-01  5.77097443e-01  5.89750841e-01  6.06238311e-01
  6.23945182e-01  6.56724796e-01  6.76404995e-01  6.94078758e-01
  7.57705021e-01  7.64476690e-01  8.01562032e-01  8.15907866e-01
  8.33423067e-01  8.44677733e-01  8.75151713e-01  8.84941346e-01
  9.11765946e-01  9.91945166e-01  1.03511271e+00  1.14168094e+00]
nelec by numeric integration = 146.00000254953417
    CPU time for vxc     37.97 sec, wall time     15.70 sec
E1 = -4109.812651664597  Ecoul = 1899.4445328807153  Exc = -124.6809668928523
cycle= 4 E= -835.229759721185  delta_E= -0.0769  |g|= 0.0853  |ddm|= 0.909
    CPU time for cycle= 4     38.51 sec, wall time     15.78 sec
  HOMO = -0.114740027851246  LUMO = -0.0360776045977752
  mo_energy =
[-1.00503925e+01 -1.00466080e+01 -1.00347357e+01 -1.00339678e+01
 -1.00337607e+01 -1.00325791e+01 -1.00319649e+01 -1.00281315e+01
 -1.00272381e+01 -1.00249599e+01 -1.00242276e+01 -1.00213962e+01
 -1.00190419e+01 -1.00183716e+01 -1.00177278e+01 -1.00172612e+01
 -1.00159469e+01 -1.00152374e+01 -1.00145199e+01 -1.00119255e+01
 -1.00079524e+01 -1.00034265e+01 -8.79663588e-01 -8.64880112e-01
 -8.40090708e-01 -8.06491902e-01 -7.91466381e-01 -7.77123942e-01
 -7.47992604e-01 -7.29410462e-01 -6.93535541e-01 -6.85039839e-01
 -6.64465099e-01 -6.46694482e-01 -6.25588481e-01 -5.83915202e-01
 -5.64053381e-01 -5.45305399e-01 -5.30394102e-01 -5.19654562e-01
 -5.09045960e-01 -4.88949258e-01 -4.71403755e-01 -4.64341810e-01
 -4.47523810e-01 -4.42411597e-01 -4.31294567e-01 -4.15298133e-01
 -4.01355668e-01 -3.91446020e-01 -3.89596381e-01 -3.73167358e-01
 -3.68413176e-01 -3.61293245e-01 -3.46733560e-01 -3.38600632e-01
 -3.26438260e-01 -3.19499785e-01 -3.14788320e-01 -3.03360980e-01
 -2.98178995e-01 -2.93783355e-01 -2.81149154e-01 -2.78088348e-01
 -2.75994502e-01 -2.40756663e-01 -2.31171495e-01 -2.17672369e-01
 -2.10996195e-01 -2.06775439e-01 -1.88400958e-01 -1.40028827e-01
 -1.14740028e-01 -3.60776046e-02 -7.46725771e-03  6.78081168e-02
  1.10148110e-01  1.13637236e-01  1.42041487e-01  1.62851088e-01
  1.66196776e-01  1.70851400e-01  1.78053618e-01  1.94764280e-01
  2.23781989e-01  2.53868509e-01  2.59874272e-01  2.67133328e-01
  2.73272267e-01  2.79034267e-01  2.95372322e-01  3.06543439e-01
  3.22550551e-01  3.33328532e-01  3.48879912e-01  3.50485297e-01
  3.65778482e-01  3.87805780e-01  3.99873426e-01  4.11302931e-01
  4.42053528e-01  4.90392413e-01  4.93188323e-01  5.05908075e-01
  5.48185499e-01  5.76836423e-01  5.90042443e-01  6.05289817e-01
  6.21547848e-01  6.51723092e-01  6.70679661e-01  6.88403533e-01
  7.53332351e-01  7.59442658e-01  7.98702500e-01  8.14519973e-01
  8.30978184e-01  8.44488742e-01  8.72515866e-01  8.79571188e-01
  9.10033498e-01  9.91616394e-01  1.03297247e+00  1.14572314e+00]
nelec by numeric integration = 146.0000025488363
    CPU time for vxc     37.93 sec, wall time     15.75 sec
E1 = -4110.197738959191  Ecoul = 1899.830293145851  Exc = -124.68426804602976
cycle= 5 E= -835.232387903821  delta_E= -0.00263  |g|= 0.0271  |ddm|= 0.164
    CPU time for cycle= 5     38.31 sec, wall time     15.81 sec
  HOMO = -0.114285113219918  LUMO = -0.0346143929517714
  mo_energy =
[-1.00484412e+01 -1.00409082e+01 -1.00372399e+01 -1.00351388e+01
 -1.00337884e+01 -1.00313967e+01 -1.00312096e+01 -1.00254252e+01
 -1.00226192e+01 -1.00226046e+01 -1.00198596e+01 -1.00196638e+01
 -1.00188917e+01 -1.00182423e+01 -1.00179361e+01 -1.00167075e+01
 -1.00149967e+01 -1.00137685e+01 -1.00113223e+01 -1.00106898e+01
 -1.00044027e+01 -1.00003875e+01 -8.79013686e-01 -8.62848415e-01
 -8.39254315e-01 -8.03738950e-01 -7.90457982e-01 -7.76374936e-01
 -7.47477113e-01 -7.28982875e-01 -6.91498711e-01 -6.83625648e-01
 -6.63417637e-01 -6.45093882e-01 -6.24597666e-01 -5.83426022e-01
 -5.63218449e-01 -5.43706506e-01 -5.28979957e-01 -5.18811780e-01
 -5.07620164e-01 -4.88004392e-01 -4.70255917e-01 -4.63096076e-01
 -4.46346906e-01 -4.40543775e-01 -4.30645153e-01 -4.14863301e-01
 -4.01380749e-01 -3.90780095e-01 -3.89170506e-01 -3.72550483e-01
 -3.67684308e-01 -3.60390780e-01 -3.46353267e-01 -3.37750581e-01
 -3.26066787e-01 -3.17802631e-01 -3.13748639e-01 -3.02193894e-01
 -2.96869245e-01 -2.91766360e-01 -2.80135908e-01 -2.77167355e-01
 -2.75004652e-01 -2.40660980e-01 -2.30941690e-01 -2.16696565e-01
 -2.10511413e-01 -2.06065324e-01 -1.86438187e-01 -1.39088011e-01
 -1.14285113e-01 -3.46143930e-02 -6.36218021e-03  6.84001515e-02
  1.11044800e-01  1.16130827e-01  1.42873942e-01  1.63487990e-01
  1.66353303e-01  1.71945240e-01  1.79999919e-01  1.95441649e-01
  2.25325193e-01  2.54442709e-01  2.60940846e-01  2.68016495e-01
  2.73088052e-01  2.80109223e-01  2.96462203e-01  3.06890241e-01
  3.23525440e-01  3.34340776e-01  3.50710277e-01  3.51799069e-01
  3.66545149e-01  3.88712687e-01  3.99474301e-01  4.11693029e-01
  4.41812551e-01  4.90652377e-01  4.97092895e-01  5.06427528e-01
  5.48088017e-01  5.78051875e-01  5.92272543e-01  6.06876552e-01
  6.24081360e-01  6.53143869e-01  6.72273686e-01  6.90878013e-01
  7.53689389e-01  7.59996631e-01  7.98899826e-01  8.16077982e-01
  8.33716129e-01  8.45660004e-01  8.72672427e-01  8.84143894e-01
  9.11620808e-01  9.90831132e-01  1.03308126e+00  1.14636587e+00]
nelec by numeric integration = 146.00000254966142
    CPU time for vxc     37.92 sec, wall time     15.67 sec
E1 = -4110.061074627232  Ecoul = 1899.6890317541051  Exc = -124.67985682672584
cycle= 6 E= -835.232573744305  delta_E= -0.000186  |g|= 0.0139  |ddm|= 0.0513
    CPU time for cycle= 6     38.37 sec, wall time     15.74 sec
  HOMO = -0.113852439092876  LUMO = -0.0339551894695906
  mo_energy =
[-1.00489866e+01 -1.00419526e+01 -1.00351030e+01 -1.00335246e+01
 -1.00329283e+01 -1.00312083e+01 -1.00300330e+01 -1.00250203e+01
 -1.00219455e+01 -1.00217635e+01 -1.00211610e+01 -1.00194280e+01
 -1.00183471e+01 -1.00171253e+01 -1.00161364e+01 -1.00158359e+01
 -1.00143506e+01 -1.00133874e+01 -1.00126332e+01 -1.00096947e+01
 -1.00047619e+01 -1.00031261e+01 -8.78592373e-01 -8.63095502e-01
 -8.38750070e-01 -8.04605276e-01 -7.90027958e-01 -7.75686663e-01
 -7.46713237e-01 -7.28270195e-01 -6.91990044e-01 -6.83252050e-01
 -6.62955482e-01 -6.44902744e-01 -6.24060639e-01 -5.82850565e-01
 -5.62875576e-01 -5.43753863e-01 -5.29000481e-01 -5.18531312e-01
 -5.07675503e-01 -4.87596801e-01 -4.69947422e-01 -4.63152073e-01
 -4.46186232e-01 -4.40918899e-01 -4.30217505e-01 -4.14436765e-01
 -4.00370726e-01 -3.90569808e-01 -3.88797311e-01 -3.72356456e-01
 -3.67272109e-01 -3.60157981e-01 -3.45926153e-01 -3.37328935e-01
 -3.26079822e-01 -3.18165004e-01 -3.13546217e-01 -3.02685538e-01
 -2.96765501e-01 -2.92286687e-01 -2.79988976e-01 -2.76713003e-01
 -2.74566633e-01 -2.40062237e-01 -2.30414452e-01 -2.16302153e-01
 -2.10522966e-01 -2.05796100e-01 -1.86664740e-01 -1.38788228e-01
 -1.13852439e-01 -3.39551895e-02 -5.76437181e-03  6.91076587e-02
  1.11570329e-01  1.15601707e-01  1.43492106e-01  1.63160482e-01
  1.66698185e-01  1.72300887e-01  1.79511666e-01  1.95780101e-01
  2.25071583e-01  2.54903411e-01  2.61234936e-01  2.67862980e-01
  2.73425305e-01  2.80314664e-01  2.96498181e-01  3.07404249e-01
  3.23559952e-01  3.34937125e-01  3.50222548e-01  3.51883946e-01
  3.66368211e-01  3.89208381e-01  3.99838920e-01  4.12122182e-01
  4.42976934e-01  4.91714872e-01  4.95956422e-01  5.07090650e-01
  5.49016705e-01  5.78413332e-01  5.91404265e-01  6.07030969e-01
  6.23509489e-01  6.53561710e-01  6.72700233e-01  6.90664653e-01
  7.54482515e-01  7.60656675e-01  8.00125349e-01  8.16655150e-01
  8.32925060e-01  8.46354008e-01  8.73578870e-01  8.83002371e-01
  9.12144687e-01  9.91831199e-01  1.03342915e+00  1.14566336e+00]
nelec by numeric integration = 146.00000254791368
    CPU time for vxc     38.30 sec, wall time     15.78 sec
E1 = -4110.053312955737  Ecoul = 1899.6813465274045  Exc = -124.67998774874387
cycle= 7 E= -835.232628221528  delta_E= -5.45e-05  |g|= 0.00722  |ddm|= 0.0292
    CPU time for cycle= 7     38.76 sec, wall time     15.85 sec
  HOMO = -0.113860056783492  LUMO = -0.0339063001553154
  mo_energy =
[-1.00484669e+01 -1.00411315e+01 -1.00346767e+01 -1.00335101e+01
 -1.00328390e+01 -1.00310430e+01 -1.00302488e+01 -1.00253596e+01
 -1.00218744e+01 -1.00217344e+01 -1.00216491e+01 -1.00186948e+01
 -1.00185527e+01 -1.00173365e+01 -1.00169330e+01 -1.00157861e+01
 -1.00144270e+01 -1.00134528e+01 -1.00122737e+01 -1.00097501e+01
 -1.00042555e+01 -1.00034806e+01 -8.78482482e-01 -8.62962664e-01
 -8.38729399e-01 -8.04432434e-01 -7.89985870e-01 -7.75745696e-01
 -7.46762865e-01 -7.28321785e-01 -6.91877475e-01 -6.83337504e-01
 -6.62905575e-01 -6.44913619e-01 -6.24149698e-01 -5.82870243e-01
 -5.62831011e-01 -5.43684434e-01 -5.28959663e-01 -5.18491063e-01
 -5.07628436e-01 -4.87626619e-01 -4.69952775e-01 -4.63078801e-01
 -4.46167388e-01 -4.40915252e-01 -4.30224278e-01 -4.14386009e-01
 -4.00519883e-01 -3.90416304e-01 -3.88722112e-01 -3.72257261e-01
 -3.67275868e-01 -3.60102322e-01 -3.45876287e-01 -3.37311590e-01
 -3.25957202e-01 -3.18191384e-01 -3.13524355e-01 -3.02555801e-01
 -2.96704146e-01 -2.92174049e-01 -2.79990142e-01 -2.76703039e-01
 -2.74634594e-01 -2.40015446e-01 -2.30422020e-01 -2.16341298e-01
 -2.10420073e-01 -2.05761361e-01 -1.86601785e-01 -1.38815767e-01
 -1.13860057e-01 -3.39063002e-02 -5.83915807e-03  6.90810780e-02
  1.11617827e-01  1.15651634e-01  1.43419407e-01  1.63245529e-01
  1.66688375e-01  1.72340100e-01  1.79612524e-01  1.95829560e-01
  2.25167241e-01  2.54924261e-01  2.61249807e-01  2.67916174e-01
  2.73516769e-01  2.80398541e-01  2.96616363e-01  3.07430559e-01
  3.23653188e-01  3.35006290e-01  3.50311309e-01  3.51906912e-01
  3.66523672e-01  3.89238742e-01  4.00010588e-01  4.12103971e-01
  4.42818936e-01  4.91557152e-01  4.96030085e-01  5.06990693e-01
  5.49013612e-01  5.78317168e-01  5.91621663e-01  6.06972194e-01
  6.23597092e-01  6.53639142e-01  6.72768560e-01  6.90855022e-01
  7.54633199e-01  7.60738963e-01  7.99694034e-01  8.16581103e-01
  8.32964248e-01  8.46286069e-01  8.73527718e-01  8.82981358e-01
  9.12078189e-01  9.91673263e-01  1.03361003e+00  1.14618908e+00]
nelec by numeric integration = 146.00000254765104
    CPU time for vxc     37.81 sec, wall time     15.66 sec
E1 = -4110.043375463832  Ecoul = 1899.6713096447475  Exc = -124.67990616010322
cycle= 8 E= -835.232646023639  delta_E= -1.78e-05  |g|= 0.00158  |ddm|= 0.012
    CPU time for cycle= 8     38.32 sec, wall time     15.74 sec
  HOMO = -0.113929839839367  LUMO = -0.0339387475220056
  mo_energy =
[-1.00487747e+01 -1.00412945e+01 -1.00349362e+01 -1.00335727e+01
 -1.00328725e+01 -1.00310951e+01 -1.00304614e+01 -1.00253083e+01
 -1.00219457e+01 -1.00219438e+01 -1.00218862e+01 -1.00188866e+01
 -1.00186655e+01 -1.00172797e+01 -1.00169767e+01 -1.00157535e+01
 -1.00144969e+01 -1.00134747e+01 -1.00122114e+01 -1.00097249e+01
 -1.00046382e+01 -1.00032071e+01 -8.78603867e-01 -8.63079204e-01
 -8.38772032e-01 -8.04511946e-01 -7.90039259e-01 -7.75814014e-01
 -7.46845537e-01 -7.28389048e-01 -6.91954375e-01 -6.83406343e-01
 -6.62959269e-01 -6.44959683e-01 -6.24214331e-01 -5.82939658e-01
 -5.62908202e-01 -5.43742075e-01 -5.29019791e-01 -5.18543447e-01
 -5.07704854e-01 -4.87673833e-01 -4.70016426e-01 -4.63141010e-01
 -4.46227495e-01 -4.40941997e-01 -4.30284851e-01 -4.14441781e-01
 -4.00582202e-01 -3.90529570e-01 -3.88779456e-01 -3.72344749e-01
 -3.67331111e-01 -3.60175886e-01 -3.45931675e-01 -3.37354691e-01
 -3.26002358e-01 -3.18208710e-01 -3.13560777e-01 -3.02577672e-01
 -2.96760502e-01 -2.92227944e-01 -2.80015364e-01 -2.76760486e-01
 -2.74662220e-01 -2.40062092e-01 -2.30441555e-01 -2.16391341e-01
 -2.10451189e-01 -2.05798759e-01 -1.86662131e-01 -1.38893475e-01
 -1.13929840e-01 -3.39387475e-02 -5.90344802e-03  6.90112986e-02
  1.11523637e-01  1.15580529e-01  1.43370419e-01  1.63302550e-01
  1.66739311e-01  1.72290723e-01  1.79567429e-01  1.95791238e-01
  2.25081241e-01  2.54894421e-01  2.61226961e-01  2.67866645e-01
  2.73518507e-01  2.80330538e-01  2.96534652e-01  3.07358075e-01
  3.23570348e-01  3.34963009e-01  3.50301254e-01  3.51864793e-01
  3.66422678e-01  3.89185850e-01  3.99906165e-01  4.12047088e-01
  4.42756147e-01  4.91492911e-01  4.95989164e-01  5.06936869e-01
  5.48930606e-01  5.78248337e-01  5.91489506e-01  6.06901379e-01
  6.23522114e-01  6.53546693e-01  6.72665392e-01  6.90727795e-01
  7.54509095e-01  7.60638516e-01  7.99684406e-01  8.16533381e-01
  8.32923433e-01  8.46215486e-01  8.73452781e-01  8.82948494e-01
  9.12032000e-01  9.91670664e-01  1.03358243e+00  1.14597794e+00]
nelec by numeric integration = 146.000002548016
    CPU time for vxc     37.91 sec, wall time     15.68 sec
E1 = -4110.054462554581  Ecoul = 1899.6825754188155  Exc = -124.68008559768043
cycle= 9 E= -835.232646777898  delta_E= -7.54e-07  |g|= 0.00066  |ddm|= 0.00273
    CPU time for cycle= 9     38.39 sec, wall time     15.75 sec
  HOMO = -0.113969412752775  LUMO = -0.0339681537885444
  mo_energy =
[-1.00487130e+01 -1.00412720e+01 -1.00349315e+01 -1.00336192e+01
 -1.00329258e+01 -1.00311729e+01 -1.00303827e+01 -1.00253010e+01
 -1.00220098e+01 -1.00218691e+01 -1.00218516e+01 -1.00188530e+01
 -1.00186778e+01 -1.00173081e+01 -1.00170485e+01 -1.00158822e+01
 -1.00145088e+01 -1.00135090e+01 -1.00123261e+01 -1.00097876e+01
 -1.00044816e+01 -1.00032442e+01 -8.78593694e-01 -8.63064015e-01
 -8.38820847e-01 -8.04504671e-01 -7.90082356e-01 -7.75825519e-01
 -7.46851266e-01 -7.28395964e-01 -6.91935610e-01 -6.83404643e-01
 -6.62990787e-01 -6.44978667e-01 -6.24222664e-01 -5.82939146e-01
 -5.62903668e-01 -5.43748061e-01 -5.29024417e-01 -5.18554235e-01
 -5.07699857e-01 -4.87697647e-01 -4.70021733e-01 -4.63134693e-01
 -4.46234444e-01 -4.40948487e-01 -4.30297519e-01 -4.14460009e-01
 -4.00590777e-01 -3.90515654e-01 -3.88802656e-01 -3.72335768e-01
 -3.67338519e-01 -3.60173567e-01 -3.45954511e-01 -3.37374410e-01
 -3.25998167e-01 -3.18212345e-01 -3.13582125e-01 -3.02567973e-01
 -2.96773140e-01 -2.92227675e-01 -2.80016293e-01 -2.76781212e-01
 -2.74680241e-01 -2.40065662e-01 -2.30443217e-01 -2.16389050e-01
 -2.10442952e-01 -2.05815764e-01 -1.86650874e-01 -1.38889141e-01
 -1.13969413e-01 -3.39681538e-02 -5.90378257e-03  6.90018859e-02
  1.11526372e-01  1.15606885e-01  1.43352201e-01  1.63310641e-01
  1.66729798e-01  1.72262081e-01  1.79565251e-01  1.95765384e-01
  2.25100564e-01  2.54865122e-01  2.61221888e-01  2.67882514e-01
  2.73480735e-01  2.80335878e-01  2.96536549e-01  3.07354480e-01
  3.23585916e-01  3.34925417e-01  3.50281157e-01  3.51846564e-01
  3.66448763e-01  3.89156086e-01  3.99915024e-01  4.12038016e-01
  4.42750806e-01  4.91479116e-01  4.95992815e-01  5.06920169e-01
  5.48925860e-01  5.78241414e-01  5.91530246e-01  6.06895588e-01
  6.23529946e-01  6.53528612e-01  6.72653593e-01  6.90749128e-01
  7.54499853e-01  7.60629177e-01  7.99671356e-01  8.16505778e-01
  8.32940306e-01  8.46183278e-01  8.73438856e-01  8.82945079e-01
  9.12004820e-01  9.91648311e-01  1.03350475e+00  1.14602350e+00]
nelec by numeric integration = 146.000002547966
    CPU time for vxc     37.62 sec, wall time     15.61 sec
E1 = -4110.054357094086  Ecoul = 1899.6824901007312  Exc = -124.68010588824794
cycle= 10 E= -835.232646926055  delta_E= -1.48e-07  |g|= 0.00014  |ddm|= 0.000979
    CPU time for cycle= 10     37.92 sec, wall time     15.67 sec
  HOMO = -0.113969655008316  LUMO = -0.0339702612151406
  mo_energy =
[-1.00487147e+01 -1.00412732e+01 -1.00349126e+01 -1.00336234e+01
 -1.00329449e+01 -1.00311645e+01 -1.00304082e+01 -1.00253347e+01
 -1.00220258e+01 -1.00218611e+01 -1.00218578e+01 -1.00188886e+01
 -1.00186654e+01 -1.00173080e+01 -1.00170319e+01 -1.00158746e+01
 -1.00145464e+01 -1.00135211e+01 -1.00122831e+01 -1.00097840e+01
 -1.00044918e+01 -1.00032336e+01 -8.78600418e-01 -8.63066295e-01
 -8.38814518e-01 -8.04500607e-01 -7.90080476e-01 -7.75837432e-01
 -7.46858620e-01 -7.28404714e-01 -6.91937566e-01 -6.83405613e-01
 -6.62991601e-01 -6.44977260e-01 -6.24224455e-01 -5.82948416e-01
 -5.62908549e-01 -5.43750427e-01 -5.29022989e-01 -5.18554362e-01
 -5.07699956e-01 -4.87692037e-01 -4.70023227e-01 -4.63137380e-01
 -4.46239328e-01 -4.40940212e-01 -4.30297991e-01 -4.14460328e-01
 -4.00596901e-01 -3.90522762e-01 -3.88804588e-01 -3.72341334e-01
 -3.67342933e-01 -3.60181427e-01 -3.45954370e-01 -3.37378077e-01
 -3.26001754e-01 -3.18204526e-01 -3.13583180e-01 -3.02569040e-01
 -2.96774543e-01 -2.92225398e-01 -2.80019137e-01 -2.76787991e-01
 -2.74681408e-01 -2.40078150e-01 -2.30455908e-01 -2.16396010e-01
 -2.10448329e-01 -2.05816587e-01 -1.86653838e-01 -1.38891206e-01
 -1.13969655e-01 -3.39702612e-02 -5.90583768e-03  6.89938456e-02
  1.11522685e-01  1.15607188e-01  1.43353433e-01  1.63301735e-01
  1.66709097e-01  1.72254820e-01  1.79566354e-01  1.95758790e-01
  2.25100905e-01  2.54861838e-01  2.61218512e-01  2.67881329e-01
  2.73483091e-01  2.80329780e-01  2.96532668e-01  3.07349124e-01
  3.23581420e-01  3.34919818e-01  3.50295625e-01  3.51843746e-01
  3.66444103e-01  3.89152957e-01  3.99912877e-01  4.12039689e-01
  4.42741919e-01  4.91476260e-01  4.96004378e-01  5.06923650e-01
  5.48917055e-01  5.78241953e-01  5.91530594e-01  6.06899716e-01
  6.23533462e-01  6.53522950e-01  6.72648217e-01  6.90747325e-01
  7.54494696e-01  7.60622445e-01  7.99667416e-01  8.16504293e-01
  8.32943624e-01  8.46195029e-01  8.73426200e-01  8.82962047e-01
  9.11998830e-01  9.91631130e-01  1.03350301e+00  1.14601022e+00]
nelec by numeric integration = 146.00000254789495
    CPU time for vxc     38.12 sec, wall time     15.75 sec
E1 = -4110.054824558461  Ecoul = 1899.682952341352  Exc = -124.68010066996109
cycle= 11 E= -835.232646931522  delta_E= -5.47e-09  |g|= 9.13e-05  |ddm|= 0.000368
    CPU time for cycle= 11     38.61 sec, wall time     15.82 sec
  HOMO = -0.113966005862644  LUMO = -0.0339651278495186
  mo_energy =
[-1.00487131e+01 -1.00412737e+01 -1.00349251e+01 -1.00336183e+01
 -1.00329265e+01 -1.00311637e+01 -1.00303959e+01 -1.00253239e+01
 -1.00220171e+01 -1.00218659e+01 -1.00218547e+01 -1.00188710e+01
 -1.00186662e+01 -1.00173035e+01 -1.00170335e+01 -1.00158699e+01
 -1.00145184e+01 -1.00135078e+01 -1.00122975e+01 -1.00097738e+01
 -1.00044972e+01 -1.00032450e+01 -8.78597136e-01 -8.63065320e-01
 -8.38811850e-01 -8.04502098e-01 -7.90077175e-01 -7.75828376e-01
 -7.46852245e-01 -7.28399820e-01 -6.91938492e-01 -6.83403941e-01
 -6.62987720e-01 -6.44975300e-01 -6.24221984e-01 -5.82943193e-01
 -5.62905735e-01 -5.43747540e-01 -5.29020988e-01 -5.18552407e-01
 -5.07699000e-01 -4.87689874e-01 -4.70020834e-01 -4.63135642e-01
 -4.46233730e-01 -4.40942882e-01 -4.30295693e-01 -4.14457412e-01
 -4.00592379e-01 -3.90519276e-01 -3.88801135e-01 -3.72338203e-01
 -3.67338189e-01 -3.60176928e-01 -3.45951173e-01 -3.37373843e-01
 -3.25999939e-01 -3.18207136e-01 -3.13579765e-01 -3.02570677e-01
 -2.96772170e-01 -2.92226165e-01 -2.80017931e-01 -2.76781182e-01
 -2.74678756e-01 -2.40072809e-01 -2.30451228e-01 -2.16392608e-01
 -2.10447466e-01 -2.05813213e-01 -1.86653444e-01 -1.38889875e-01
 -1.13966006e-01 -3.39651278e-02 -5.90356224e-03  6.89994488e-02
  1.11525517e-01  1.15604802e-01  1.43356741e-01  1.63300636e-01
  1.66714488e-01  1.72262276e-01  1.79565818e-01  1.95764669e-01
  2.25100194e-01  2.54866003e-01  2.61219762e-01  2.67881262e-01
  2.73484435e-01  2.80333653e-01  2.96535239e-01  3.07353360e-01
  3.23582781e-01  3.34926999e-01  3.50290990e-01  3.51848154e-01
  3.66445207e-01  3.89159103e-01  3.99913995e-01  4.12043178e-01
  4.42747282e-01  4.91481465e-01  4.95998336e-01  5.06927534e-01
  5.48922438e-01  5.78247718e-01  5.91527516e-01  6.06902288e-01
  6.23532931e-01  6.53528337e-01  6.72653040e-01  6.90747662e-01
  7.54496786e-01  7.60625618e-01  7.99669694e-01  8.16512286e-01
  8.32939354e-01  8.46194240e-01  8.73434121e-01  8.82955127e-01
  9.12009277e-01  9.91639120e-01  1.03350766e+00  1.14601574e+00]
nelec by numeric integration = 146.00000254791487
    CPU time for vxc     39.03 sec, wall time     15.93 sec
E1 = -4110.054476674282  Ecoul = 1899.682601042415  Exc = -124.68009725829593
cycle= 12 E= -835.232646934615  delta_E= -3.09e-09  |g|= 1.79e-05  |ddm|= 0.000148
    CPU time for cycle= 12     39.39 sec, wall time     15.99 sec
  HOMO = -0.11396542877366  LUMO = -0.0339643930865309
  mo_energy =
[-1.00487126e+01 -1.00412741e+01 -1.00349223e+01 -1.00336163e+01
 -1.00329303e+01 -1.00311627e+01 -1.00303987e+01 -1.00253207e+01
 -1.00220150e+01 -1.00218663e+01 -1.00218533e+01 -1.00188682e+01
 -1.00186625e+01 -1.00173024e+01 -1.00170298e+01 -1.00158680e+01
 -1.00145204e+01 -1.00135093e+01 -1.00122988e+01 -1.00097771e+01
 -1.00044950e+01 -1.00032419e+01 -8.78596312e-01 -8.63064860e-01
 -8.38811022e-01 -8.04501747e-01 -7.90076285e-01 -7.75828728e-01
 -7.46852256e-01 -7.28399342e-01 -6.91937687e-01 -6.83403658e-01
 -6.62987043e-01 -6.44974868e-01 -6.24221393e-01 -5.82942661e-01
 -5.62905364e-01 -5.43747674e-01 -5.29021122e-01 -5.18552140e-01
 -5.07698760e-01 -4.87689746e-01 -4.70020607e-01 -4.63135447e-01
 -4.46234041e-01 -4.40943087e-01 -4.30295071e-01 -4.14456867e-01
 -4.00591754e-01 -3.90518654e-01 -3.88800516e-01 -3.72337735e-01
 -3.67338086e-01 -3.60176605e-01 -3.45950464e-01 -3.37373708e-01
 -3.25999594e-01 -3.18207329e-01 -3.13579773e-01 -3.02570064e-01
 -2.96771747e-01 -2.92225771e-01 -2.80017188e-01 -2.76781227e-01
 -2.74677987e-01 -2.40071807e-01 -2.30450160e-01 -2.16392082e-01
 -2.10446827e-01 -2.05813210e-01 -1.86652894e-01 -1.38889351e-01
 -1.13965429e-01 -3.39643931e-02 -5.90304753e-03  6.89996236e-02
  1.11526074e-01  1.15605434e-01  1.43357451e-01  1.63301807e-01
  1.66716481e-01  1.72261912e-01  1.79566283e-01  1.95764699e-01
  2.25100317e-01  2.54866523e-01  2.61220409e-01  2.67881153e-01
  2.73485404e-01  2.80333661e-01  2.96535676e-01  3.07353510e-01
  3.23583327e-01  3.34927057e-01  3.50290215e-01  3.51847911e-01
  3.66445694e-01  3.89159076e-01  3.99914984e-01  4.12043070e-01
  4.42747707e-01  4.91481324e-01  4.95998311e-01  5.06926889e-01
  5.48922721e-01  5.78246835e-01  5.91528615e-01  6.06901876e-01
  6.23532828e-01  6.53528634e-01  6.72653235e-01  6.90747968e-01
  7.54498202e-01  7.60626833e-01  7.99670810e-01  8.16511695e-01
  8.32940362e-01  8.46196429e-01  8.73434515e-01  8.82954741e-01
  9.12008235e-01  9.91640790e-01  1.03350860e+00  1.14601713e+00]
nelec by numeric integration = 146.00000254791766
    CPU time for vxc     37.97 sec, wall time     15.80 sec
E1 = -4110.054453835712  Ecoul = 1899.6825768970998  Exc = -124.68009595165155
cycle= 13 E= -835.232646934715  delta_E= -1e-10  |g|= 9.93e-06  |ddm|= 4.01e-05
    CPU time for cycle= 13     38.50 sec, wall time     15.88 sec
  HOMO = -0.113965969914851  LUMO = -0.0339648259887729
  mo_energy =
[-1.00487132e+01 -1.00412741e+01 -1.00349221e+01 -1.00336173e+01
 -1.00329289e+01 -1.00311628e+01 -1.00303967e+01 -1.00253213e+01
 -1.00220156e+01 -1.00218663e+01 -1.00218534e+01 -1.00188707e+01
 -1.00186647e+01 -1.00173031e+01 -1.00170324e+01 -1.00158695e+01
 -1.00145207e+01 -1.00135090e+01 -1.00122977e+01 -1.00097765e+01
 -1.00044950e+01 -1.00032422e+01 -8.78596466e-01 -8.63064906e-01
 -8.38811821e-01 -8.04501986e-01 -7.90076891e-01 -7.75828663e-01
 -7.46852258e-01 -7.28399368e-01 -6.91937784e-01 -6.83403827e-01
 -6.62987417e-01 -6.44975232e-01 -6.24221669e-01 -5.82942748e-01
 -5.62905408e-01 -5.43747631e-01 -5.29021292e-01 -5.18552231e-01
 -5.07698891e-01 -4.87690159e-01 -4.70020691e-01 -4.63135526e-01
 -4.46234159e-01 -4.40943056e-01 -4.30295426e-01 -4.14457217e-01
 -4.00591983e-01 -3.90518872e-01 -3.88800894e-01 -3.72337938e-01
 -3.67338266e-01 -3.60176631e-01 -3.45950988e-01 -3.37373787e-01
 -3.25999773e-01 -3.18207351e-01 -3.13579862e-01 -3.02570051e-01
 -2.96771990e-01 -2.92225960e-01 -2.80017450e-01 -2.76781251e-01
 -2.74678426e-01 -2.40071851e-01 -2.30450234e-01 -2.16392108e-01
 -2.10446897e-01 -2.05813321e-01 -1.86652865e-01 -1.38889602e-01
 -1.13965970e-01 -3.39648260e-02 -5.90327475e-03  6.89996451e-02
  1.11525948e-01  1.15605426e-01  1.43356860e-01  1.63301840e-01
  1.66716317e-01  1.72261893e-01  1.79566179e-01  1.95764631e-01
  2.25100173e-01  2.54866215e-01  2.61220188e-01  2.67881237e-01
  2.73484796e-01  2.80333625e-01  2.96535492e-01  3.07353473e-01
  3.23583134e-01  3.34926897e-01  3.50290498e-01  3.51847911e-01
  3.66445402e-01  3.89158876e-01  3.99914487e-01  4.12042634e-01
  4.42747666e-01  4.91481263e-01  4.95998411e-01  5.06926772e-01
  5.48922855e-01  5.78246697e-01  5.91528396e-01  6.06901689e-01
  6.23532737e-01  6.53528598e-01  6.72653271e-01  6.90747875e-01
  7.54498096e-01  7.60626704e-01  7.99670510e-01  8.16511438e-01
  8.32940275e-01  8.46194812e-01  8.73434574e-01  8.82954997e-01
  9.12008143e-01  9.91640364e-01  1.03350809e+00  1.14601613e+00]
nelec by numeric integration = 146.00000254791735
    CPU time for vxc     37.38 sec, wall time     15.55 sec
E1 = -4110.054448234734  Ecoul = 1899.6825723059403  Exc = -124.6800969615003
cycle= 14 E= -835.232646934746  delta_E= -3.05e-11  |g|= 4.15e-06  |ddm|= 1.83e-05
    CPU time for cycle= 14     37.80 sec, wall time     15.61 sec
  HOMO = -0.11396610137945  LUMO = -0.033964977044878
  mo_energy =
[-1.00487128e+01 -1.00412736e+01 -1.00349230e+01 -1.00336174e+01
 -1.00329301e+01 -1.00311638e+01 -1.00303984e+01 -1.00253222e+01
 -1.00220183e+01 -1.00218662e+01 -1.00218540e+01 -1.00188698e+01
 -1.00186636e+01 -1.00173031e+01 -1.00170305e+01 -1.00158692e+01
 -1.00145207e+01 -1.00135094e+01 -1.00122983e+01 -1.00097757e+01
 -1.00044951e+01 -1.00032431e+01 -8.78596829e-01 -8.63065184e-01
 -8.38811477e-01 -8.04501988e-01 -7.90077026e-01 -7.75829159e-01
 -7.46852605e-01 -7.28399887e-01 -6.91938076e-01 -6.83403914e-01
 -6.62987663e-01 -6.44975214e-01 -6.24221805e-01 -5.82943160e-01
 -5.62905713e-01 -5.43747981e-01 -5.29021219e-01 -5.18552418e-01
 -5.07698995e-01 -4.87689898e-01 -4.70021004e-01 -4.63135693e-01
 -4.46234328e-01 -4.40943099e-01 -4.30295543e-01 -4.14457244e-01
 -4.00592287e-01 -3.90519089e-01 -3.88801065e-01 -3.72338124e-01
 -3.67338306e-01 -3.60176997e-01 -3.45950889e-01 -3.37374121e-01
 -3.25999718e-01 -3.18207378e-01 -3.13580090e-01 -3.02570221e-01
 -2.96772200e-01 -2.92226037e-01 -2.80017455e-01 -2.76781696e-01
 -2.74678398e-01 -2.40072334e-01 -2.30450639e-01 -2.16392469e-01
 -2.10447006e-01 -2.05813377e-01 -1.86653203e-01 -1.38889670e-01
 -1.13966101e-01 -3.39649770e-02 -5.90336898e-03  6.89991607e-02
  1.11525707e-01  1.15605252e-01  1.43357158e-01  1.63301633e-01
  1.66715766e-01  1.72261452e-01  1.79565948e-01  1.95764253e-01
  2.25100161e-01  2.54866005e-01  2.61220135e-01  2.67881122e-01
  2.73484987e-01  2.80333507e-01  2.96535292e-01  3.07353147e-01
  3.23583021e-01  3.34926504e-01  3.50290320e-01  3.51847637e-01
  3.66445428e-01  3.89158598e-01  3.99914592e-01  4.12043053e-01
  4.42747195e-01  4.91481086e-01  4.95998269e-01  5.06926987e-01
  5.48922245e-01  5.78246912e-01  5.91528314e-01  6.06901867e-01
  6.23532732e-01  6.53527894e-01  6.72652557e-01  6.90747774e-01
  7.54497196e-01  7.60625928e-01  7.99670243e-01  8.16511730e-01
  8.32940081e-01  8.46195905e-01  8.73433843e-01  8.82954836e-01
  9.12008259e-01  9.91639783e-01  1.03350741e+00  1.14601652e+00]
nelec by numeric integration = 146.0000025479151
    CPU time for vxc     37.99 sec, wall time     15.76 sec
E1 = -4110.05452020317  Ecoul = 1899.6826443439254  Exc = -124.68009703093708
Extra cycle  E= -835.232646934634  delta_E= 1.12e-10  |g|= 1.69e-05  |ddm|= 3.65e-05
    CPU time for scf_cycle    625.91 sec, wall time    255.71 sec
    CPU time for SCF    625.92 sec, wall time    255.71 sec
converged SCF energy = -835.232646934634
nelec by numeric integration = 146.0000025479151
    CPU time for vxc     37.99 sec, wall time     15.78 sec
 ** Mulliken pop  **
pop of  0 C 1s            1.99128
pop of  0 C 2s            1.16702
pop of  0 C 2px           0.98603
pop of  0 C 2py           0.89936
pop of  0 C 2pz           0.89788
pop of  1 C 1s            1.99085
pop of  1 C 2s            0.98825
pop of  1 C 2px           1.04327
pop of  1 C 2py           1.06603
pop of  1 C 2pz           0.98485
pop of  2 C 1s            1.99093
pop of  2 C 2s            1.13818
pop of  2 C 2px           0.99933
pop of  2 C 2py           0.95871
pop of  2 C 2pz           0.97548
pop of  3 C 1s            1.99187
pop of  3 C 2s            1.21235
pop of  3 C 2px           0.96683
pop of  3 C 2py           0.92852
pop of  3 C 2pz           1.01025
pop of  4 C 1s            1.99124
pop of  4 C 2s            1.15669
pop of  4 C 2px           1.03550
pop of  4 C 2py           0.91013
pop of  4 C 2pz           0.93982
pop of  5 C 1s            1.99178
pop of  5 C 2s            1.11262
pop of  5 C 2px           0.98273
pop of  5 C 2py           0.99077
pop of  5 C 2pz           0.98203
pop of  6 C 1s            1.99153
pop of  6 C 2s            1.17579
pop of  6 C 2px           0.98496
pop of  6 C 2py           0.94750
pop of  6 C 2pz           0.93193
pop of  7 C 1s            1.99082
pop of  7 C 2s            1.12543
pop of  7 C 2px           1.00198
pop of  7 C 2py           1.00246
pop of  7 C 2pz           0.96519
pop of  8 C 1s            1.99060
pop of  8 C 2s            1.09106
pop of  8 C 2px           1.00333
pop of  8 C 2py           0.99174
pop of  8 C 2pz           0.94613
pop of  9 C 1s            1.99098
pop of  9 C 2s            1.13861
pop of  9 C 2px           0.97220
pop of  9 C 2py           0.92662
pop of  9 C 2pz           0.93937
pop of  10 C 1s           1.99147
pop of  10 C 2s           1.06633
pop of  10 C 2px          1.00241
pop of  10 C 2py          1.01611
pop of  10 C 2pz          0.97159
pop of  11 C 1s           1.99062
pop of  11 C 2s           1.12521
pop of  11 C 2px          1.01620
pop of  11 C 2py          0.96513
pop of  11 C 2pz          0.99523
pop of  12 C 1s           1.99097
pop of  12 C 2s           1.13617
pop of  12 C 2px          1.00093
pop of  12 C 2py          0.94884
pop of  12 C 2pz          0.92839
pop of  13 C 1s           1.99099
pop of  13 C 2s           1.16335
pop of  13 C 2px          0.95516
pop of  13 C 2py          0.92711
pop of  13 C 2pz          0.93509
pop of  14 C 1s           1.99147
pop of  14 C 2s           1.15909
pop of  14 C 2px          0.99734
pop of  14 C 2py          0.92692
pop of  14 C 2pz          1.02759
pop of  15 C 1s           1.99097
pop of  15 C 2s           1.13312
pop of  15 C 2px          1.03085
pop of  15 C 2py          0.96721
pop of  15 C 2pz          0.99815
pop of  16 C 1s           1.99123
pop of  16 C 2s           1.08788
pop of  16 C 2px          1.00013
pop of  16 C 2py          0.99625
pop of  16 C 2pz          0.95543
pop of  17 C 1s           1.99172
pop of  17 C 2s           1.16863
pop of  17 C 2px          0.95272
pop of  17 C 2py          0.96312
pop of  17 C 2pz          0.91375
pop of  18 C 1s           1.99177
pop of  18 C 2s           1.16582
pop of  18 C 2px          0.96177
pop of  18 C 2py          0.98259
pop of  18 C 2pz          0.95603
pop of  19 C 1s           1.99125
pop of  19 C 2s           1.12852
pop of  19 C 2px          0.97666
pop of  19 C 2py          0.94415
pop of  19 C 2pz          1.01756
pop of  20 C 1s           1.99138
pop of  20 C 2s           1.18509
pop of  20 C 2px          0.97905
pop of  20 C 2py          0.93231
pop of  20 C 2pz          0.95613
pop of  21 C 1s           1.99039
pop of  21 C 2s           1.08876
pop of  21 C 2px          1.01992
pop of  21 C 2py          1.03513
pop of  21 C 2pz          1.02460
pop of  22 H 1s           0.92352
pop of  23 H 1s           0.88080
pop of  24 H 1s           0.97632
pop of  25 H 1s           0.93343
pop of  26 H 1s           0.97854
pop of  27 H 1s           0.91348
pop of  28 H 1s           0.98233
pop of  29 H 1s           0.90726
pop of  30 H 1s           0.88285
pop of  31 H 1s           0.90675
pop of  32 H 1s           0.94347
pop of  33 H 1s           0.90032
pop of  34 H 1s           0.91758
pop of  35 H 1s           0.88477
 ** Mulliken atomic charges  **
charge of    0C =      0.05843
charge of    1C =     -0.07324
charge of    2C =     -0.06264
charge of    3C =     -0.10982
charge of    4C =     -0.03338
charge of    5C =     -0.05994
charge of    6C =     -0.03170
charge of    7C =     -0.08588
charge of    8C =     -0.02286
charge of    9C =      0.03222
charge of   10C =     -0.04791
charge of   11C =     -0.09239
charge of   12C =     -0.00530
charge of   13C =      0.02829
charge of   14C =     -0.10242
charge of   15C =     -0.12029
charge of   16C =     -0.03092
charge of   17C =      0.01006
charge of   18C =     -0.05799
charge of   19C =     -0.05815
charge of   20C =     -0.04395
charge of   21C =     -0.15880
charge of   22H =      0.07648
charge of   23H =      0.11920
charge of   24H =      0.02368
charge of   25H =      0.06657
charge of   26H =      0.02146
charge of   27H =      0.08652
charge of   28H =      0.01767
charge of   29H =      0.09274
charge of   30H =      0.11715
charge of   31H =      0.09325
charge of   32H =      0.05653
charge of   33H =      0.09968
charge of   34H =      0.08242
charge of   35H =      0.11523
Dipole moment(X, Y, Z, Debye):  0.00509, -0.33526,  0.10385
nelec by numeric integration = 146.0000025479151
    CPU time for vxc     37.29 sec, wall time     15.63 sec
E1 = -4110.05452020317  Ecoul = 1899.6826443439252  Exc = -124.68009703093708
nelec by numeric integration = 146.0000025479151
    CPU time for vxc     38.16 sec, wall time     15.73 sec
E1 = -4110.05452020317  Ecoul = 1899.6826443439259  Exc = -124.68009703093708
