System: uname_result(system='Linux', node='cosmopc18', release='5.15.0-97-generic', version='#107-Ubuntu SMP Wed Feb 7 13:26:48 UTC 2024', machine='x86_64')  Threads 4
Python 3.11.8 (main, Feb 26 2024, 21:39:34) [GCC 11.2.0]
numpy 1.26.4  scipy 1.11.4
Date: Tue Apr  9 16:18:35 2024
PySCF version 2.3.0
PySCF path  /home/saade/miniconda3/envs/tutorial/lib/python3.11/site-packages/pyscf

[ENV] PYSCFAD_BACKEND torch
[CONFIG] conf_file None
[INPUT] verbose = 5
[INPUT] max_memory = 4000 
[INPUT] num. atoms = 36
[INPUT] num. electrons = 146
[INPUT] charge = 0
[INPUT] spin (= nelec alpha-beta = 2S) = 0
[INPUT] symmetry False subgroup None
[INPUT] Mole.unit = angstrom
[INPUT] Symbol           X                Y                Z      unit          X                Y                Z       unit  Magmom
[INPUT]  1 C      0.087501000000   3.663665000000   0.764315000000 AA    0.165352925626   6.923323462155   1.444346022897 Bohr   0.0
[INPUT]  2 C     -0.036251000000   3.697100000000  -0.616910000000 AA   -0.068504461742   6.986506455129  -1.165790943505 Bohr   0.0
[INPUT]  3 C      0.077935000000   4.969017000000   1.466140000000 AA    0.147275805518   9.390081238308   2.770603060270 Bohr   0.0
[INPUT]  4 C     -0.063283000000   2.325590000000   1.401577000000 AA   -0.119587538341   4.394728178027   2.648596672490 Bohr   0.0
[INPUT]  5 C     -0.134688000000   4.783300000000  -1.415684000000 AA   -0.254523432265   9.039126971632  -2.675255038929 Bohr   0.0
[INPUT]  6 C      0.164428000000   2.481937000000  -1.372663000000 AA    0.310723887210   4.690181188425  -2.593957131324 Bohr   0.0
[INPUT]  7 C      0.009315000000   6.009055000000  -0.775383000000 AA    0.017602798850  11.355468217448  -1.465261511644 Bohr   0.0
[INPUT]  8 C     -0.216603000000   6.245631000000   0.762037000000 AA   -0.409320347759  11.802532065093   1.440041226785 Bohr   0.0
[INPUT]  9 C      0.191968000000   1.414656000000   0.697677000000 AA    0.362766944681   2.673312400473   1.318418453408 Bohr   0.0
[INPUT] 10 C      0.044063000000   1.197326000000  -0.935679000000 AA    0.083267002227   2.262618221821  -1.768177050507 Bohr   0.0
[INPUT] 11 C      0.012661000000   0.074375000000   1.552705000000 AA    0.023925822463   0.140548380515   2.934187202243 Bohr   0.0
[INPUT] 12 C      0.045800000000   0.036228000000  -1.359065000000 AA    0.086549456505   0.068460998041  -2.568260635482 Bohr   0.0
[INPUT] 13 C      0.097493000000  -1.022891000000   0.897598000000 AA    0.184235069062  -1.932983845282   1.696214389957 Bohr   0.0
[INPUT] 14 C      0.089013000000  -1.105368000000  -0.847368000000 AA    0.168210191526  -2.088842786858  -1.601293446720 Bohr   0.0
[INPUT] 15 C     -0.015331000000  -2.563447000000   1.457867000000 AA   -0.028971391216  -4.844212764838   2.754969356041 Bohr   0.0
[INPUT] 16 C     -0.012166000000  -2.357685000000  -1.135227000000 AA   -0.022990408031  -4.455378937995  -2.145268119212 Bohr   0.0
[INPUT] 17 C      0.199539000000  -3.643365000000   0.807479000000 AA    0.377074061170  -6.884962021826   1.525914161338 Bohr   0.0
[INPUT] 18 C     -0.060824000000  -3.583696000000  -0.718327000000 AA   -0.114940701801  -6.772203953699  -1.357441297880 Bohr   0.0
[INPUT] 19 C     -0.008745000000  -4.961600000000   1.416915000000 AA   -0.016525654959  -9.376065139642   2.677581291788 Bohr   0.0
[INPUT] 20 C     -0.137441000000  -4.964781000000  -1.401172000000 AA   -0.259725848286  -9.382076358444  -2.647831333409 Bohr   0.0
[INPUT] 21 C      0.007593000000  -6.105511000000   0.720511000000 AA    0.014348690464 -11.537743640519   1.361568459736 Bohr   0.0
[INPUT] 22 C      0.148663000000  -6.066141000000  -0.703368000000 AA    0.280932354856 -11.463345122995  -1.329172884783 Bohr   0.0
[INPUT] 23 H      0.206910000000   4.900911000000   2.493310000000 AA    0.391003232434   9.261379550868   4.711673043639 Bohr   0.0
[INPUT] 24 H     -0.057861000000   2.511295000000   2.530413000000 AA   -0.109341443293   4.745659767990   4.781787552039 Bohr   0.0
[INPUT] 25 H      0.310326000000   5.007219000000  -2.415414000000 AA    0.586431149332   9.462272555719  -4.564470937440 Bohr   0.0
[INPUT] 26 H     -0.034850000000   2.570192000000  -2.518894000000 AA   -0.065856955441   4.856958967548  -4.760019796810 Bohr   0.0
[INPUT] 27 H      0.250509000000   7.176243000000  -1.241999000000 AA    0.473393401739  13.561133873327  -2.347037956984 Bohr   0.0
[INPUT] 28 H     -0.104767000000   6.933047000000   1.473765000000 AA   -0.197980936892  13.101560038737   2.785012221970 Bohr   0.0
[INPUT] 29 H      0.194697000000   0.031563000000   2.513174000000 AA    0.367924007274   0.059645425670   4.749210563378 Bohr   0.0
[INPUT] 30 H      0.036958000000   0.092889000000  -2.531770000000 AA    0.069840498112   0.175534769985  -4.784351910390 Bohr   0.0
[INPUT] 31 H     -0.144429000000  -2.598131000000   2.552901000000 AA   -0.272931254445  -4.909756025742   4.824283713128 Bohr   0.0
[INPUT] 32 H     -0.137930000000  -2.371168000000  -2.558375000000 AA   -0.260649924361  -4.480858115333  -4.834628073934 Bohr   0.0
[INPUT] 33 H      0.093495000000  -4.873169000000   2.479430000000 AA    0.176679944016  -9.208954768721   4.685443645030 Bohr   0.0
[INPUT] 34 H      0.207289000000  -4.865221000000  -2.595852000000 AA    0.391719438635  -9.193935225483  -4.905449339904 Bohr   0.0
[INPUT] 35 H      0.063001000000  -6.985111000000   1.368267000000 AA    0.119054635574 -13.199946739687   2.585649895280 Bohr   0.0
[INPUT] 36 H     -0.027060000000  -7.374384000000  -1.147773000000 AA   -0.051135988931 -13.935566097375  -2.168976623170 Bohr   0.0
[INPUT] ---------------- BASIS SET ---------------- 
[INPUT] l, kappa, [nprim/nctr], expnt,             c_1 c_2 ...
[INPUT] H
[INPUT] 0    0    [3    /1   ]  3.42525091        0.15432897
                                0.62391373        0.53532814
                                0.1688554         0.44463454
[INPUT] C
[INPUT] 0    0    [3    /1   ]  71.616837         0.15432897
                                13.045096         0.53532814
                                3.5305122         0.44463454
[INPUT] 0    0    [3    /1   ]  2.9412494         -0.09996723
                                0.6834831         0.39951283
                                0.2222899         0.70011547
[INPUT] 1    0    [3    /1   ]  2.9412494         0.15591627
                                0.6834831         0.60768372
                                0.2222899         0.39195739

nuclear repulsion = 1487.90799477901
number of shells = 80
number of NR pGTOs = 372
number of NR cGTOs = 124
basis = sto3g
ecp = {}
CPU time:     58028.82
atom C rad-grids = 99, ang-grids = [ 50  50  50  50  50  50  50  50  50  50  50  50  50  50  50  50  50  50
  50  50  50  50  50  50  50  50  50  50  50  50  50  86  86  86  86  86
  86  86  86  86  86  86  86 434 434 434 434 434 434 434 434 434 590 590
 590 590 590 590 590 590 590 590 590 590 590 590 590 590 590 590 590 590
 590 590 590 590 590 590 590 434 434 434 434 434 434 434 434 434 434 434
 434 434 434 434 434 434 434 434 434]
atom H rad-grids = 99, ang-grids = [ 50  50  50  50  50  50  50  50  50  50  50  50  50  50  50  50  50  50
  50  50  50  50  50  50  50  50  50  50  86  86  86  86  86  86  86 434
 434 434 434 434 434 434 434 590 590 590 590 590 590 590 590 590 590 590
 590 590 590 590 590 590 590 590 590 590 590 590 590 590 590 434 434 434
 434 434 434 434 434 434 434 434 434 434 434 434 434 434 434 434 434 434
 434 434 434 434 434 434 434 434 434]
tot_boxes 5440, boxes in each direction [ 8 30 15]
Padding 0 grids
tot grids = 1157832


******** <class 'pyscf.dft.rks.RKS'> ********
method = RKS
initial guess = minao
damping factor = 0
level_shift factor = 0
DIIS = <class 'pyscf.scf.diis.CDIIS'>
diis_start_cycle = 1
diis_space = 8
SCF conv_tol = 1e-10
SCF conv_tol_grad = None
SCF max_cycles = 50
direct_scf = True
direct_scf_tol = 1e-13
chkfile to save SCF result = /home/saade/mlelec/tutorials/tmp4o2a4lqz
max_memory 4000 MB (current use 690 MB)
XC library pyscf.dft.libxc version 6.1.0
    S. Lehtola, C. Steigemann, M. J.T. Oliveira, and M. A.L. Marques.,  SoftwareX 7, 1–5 (2018)
XC functionals = b3lypg
    P. J. Stephens, F. J. Devlin, C. F. Chabalowski, and M. J. Frisch.,  J. Phys. Chem. 98, 11623 (1994)
radial grids: 
    Treutler-Ahlrichs [JCP 102, 346 (1995); DOI:10.1063/1.469408] (M4) radial grids
    
becke partition: Becke, JCP 88, 2547 (1988); DOI:10.1063/1.454033
pruning grids: <function nwchem_prune at 0x7f9db5616ca0>
grids dens level: 3
symmetrized grids: False
atomic radii adjust function: <function treutler_atomic_radii_adjust at 0x7f9db5617380>
User specified grid scheme (99, 590)
small_rho_cutoff = 1e-07
Set gradient conv threshold to 1e-05
Initial guess from minao.
nelec by numeric integration = 145.27019782265475
    CPU time for vxc     37.09 sec, wall time     15.56 sec
E1 = -4076.492058939498  Ecoul = 1873.4485749101182  Exc = -125.80610399414277
init E= -840.941593244512
cond(S) = 21.198805963709194
    CPU time for initialize scf     47.20 sec, wall time     17.98 sec
  HOMO = -0.219554436390924  LUMO = -0.148533698645826
  mo_energy =
[-1.01479808e+01 -1.01312491e+01 -1.01282900e+01 -1.01238611e+01
 -1.01204906e+01 -1.01172907e+01 -1.01162334e+01 -1.01098098e+01
 -1.01046377e+01 -1.00998454e+01 -1.00989842e+01 -1.00969377e+01
 -1.00960651e+01 -1.00934588e+01 -1.00913017e+01 -1.00903956e+01
 -1.00893504e+01 -1.00793595e+01 -1.00789531e+01 -1.00778564e+01
 -1.00727467e+01 -1.00646117e+01 -1.09387463e+00 -1.05595792e+00
 -1.02371378e+00 -9.88970728e-01 -9.62490656e-01 -9.26045556e-01
 -9.16767235e-01 -8.93377135e-01 -8.59151856e-01 -8.38974870e-01
 -8.10654174e-01 -7.63660622e-01 -7.19498350e-01 -6.80232177e-01
 -6.78863298e-01 -6.57937351e-01 -6.42644459e-01 -6.35431572e-01
 -6.03054347e-01 -5.70978870e-01 -5.62273578e-01 -5.45447070e-01
 -5.32289683e-01 -5.21526826e-01 -5.15536699e-01 -4.96690883e-01
 -4.82691565e-01 -4.79528706e-01 -4.71317334e-01 -4.55985593e-01
 -4.49566880e-01 -4.42147072e-01 -4.36558639e-01 -4.29688921e-01
 -4.12822154e-01 -4.04261010e-01 -3.99027194e-01 -3.84440846e-01
 -3.69901984e-01 -3.65214771e-01 -3.58506202e-01 -3.45470613e-01
 -3.39988679e-01 -3.31582108e-01 -3.13536536e-01 -3.10795728e-01
 -2.97673069e-01 -2.71257567e-01 -2.62796384e-01 -2.53733265e-01
 -2.19554436e-01 -1.48533699e-01 -8.84693437e-02 -6.91485479e-02
 -4.69361594e-02 -2.99235743e-02 -3.18185959e-03  1.73070505e-02
  2.74274665e-02  3.86801283e-02  7.49137456e-02  8.98467402e-02
  9.71446327e-02  1.09683980e-01  1.31059068e-01  1.34132995e-01
  1.61122577e-01  1.79873131e-01  1.90630427e-01  1.97290348e-01
  2.17894719e-01  2.42515995e-01  2.53273331e-01  2.56059541e-01
  2.68102487e-01  2.86184379e-01  2.94419679e-01  3.21647364e-01
  3.25065283e-01  3.32782271e-01  3.44218324e-01  3.58545142e-01
  3.63364017e-01  3.91815126e-01  4.25463056e-01  4.48081749e-01
  4.54141592e-01  4.92802388e-01  4.97168126e-01  5.19187580e-01
  5.31586687e-01  5.35789038e-01  5.70908309e-01  6.02476827e-01
  6.15041682e-01  6.33804487e-01  6.45318325e-01  6.78735888e-01
  7.22030668e-01  8.08815157e-01  8.41618706e-01  8.66819292e-01]
nelec by numeric integration = 146.00000702470268
    CPU time for vxc     38.63 sec, wall time     15.84 sec
E1 = -4092.3097423032323  Ecoul = 1893.1948340201106  Exc = -124.50228677723298
cycle= 1 E= -835.709200281344  delta_E= 5.23  |g|= 0.289  |ddm|= 9.24
    CPU time for cycle= 1     39.01 sec, wall time     15.90 sec
  HOMO = -0.0926411718388764  LUMO = 0.00649689767919793
  mo_energy =
[-1.00561205e+01 -1.00415442e+01 -1.00367270e+01 -1.00151997e+01
 -1.00079970e+01 -1.00068760e+01 -9.98912696e+00 -9.98858831e+00
 -9.98807192e+00 -9.98125708e+00 -9.98040426e+00 -9.98005436e+00
 -9.97810935e+00 -9.97267023e+00 -9.96869819e+00 -9.95659120e+00
 -9.95440964e+00 -9.94947999e+00 -9.94728822e+00 -9.94215785e+00
 -9.93469189e+00 -9.91633960e+00 -8.16235515e-01 -8.06289021e-01
 -7.79805180e-01 -7.55264429e-01 -7.37690469e-01 -7.20789105e-01
 -7.13137342e-01 -6.95720955e-01 -6.76070783e-01 -6.55342388e-01
 -6.36773267e-01 -6.02138651e-01 -5.76495990e-01 -5.45796767e-01
 -5.42129781e-01 -5.13848583e-01 -4.96931880e-01 -4.93290494e-01
 -4.72100336e-01 -4.53006850e-01 -4.48102398e-01 -4.38635646e-01
 -4.18105877e-01 -4.07266124e-01 -3.94009221e-01 -3.85721023e-01
 -3.76101798e-01 -3.65108067e-01 -3.57614434e-01 -3.48533457e-01
 -3.40771456e-01 -3.37835329e-01 -3.32777562e-01 -3.18948454e-01
 -3.03143502e-01 -2.93891087e-01 -2.89997800e-01 -2.81278900e-01
 -2.77267825e-01 -2.60981804e-01 -2.51713779e-01 -2.44066276e-01
 -2.39177449e-01 -2.20969181e-01 -1.98135403e-01 -1.93784202e-01
 -1.84311894e-01 -1.56690453e-01 -1.50239862e-01 -1.39474804e-01
 -9.26411718e-02  6.49689768e-03  5.39297011e-02  7.66075496e-02
  9.79883725e-02  1.11452621e-01  1.61200188e-01  1.75373054e-01
  1.84509695e-01  2.05236627e-01  2.21203371e-01  2.45383180e-01
  2.49532226e-01  2.68337877e-01  2.82418926e-01  2.87559593e-01
  3.04392915e-01  3.14236394e-01  3.29670131e-01  3.58538067e-01
  3.70493071e-01  3.91445833e-01  3.98680319e-01  4.02301857e-01
  4.19955814e-01  4.38189505e-01  4.41757613e-01  4.52333338e-01
  4.77622373e-01  4.80410387e-01  4.97526722e-01  5.16364941e-01
  5.28915142e-01  5.49448890e-01  5.76889064e-01  6.08608227e-01
  6.26074765e-01  6.33174621e-01  6.38166781e-01  6.47496738e-01
  6.80338583e-01  7.02548890e-01  7.08874828e-01  7.60922391e-01
  7.69042967e-01  8.00910310e-01  8.12280634e-01  8.63489003e-01
  8.99562917e-01  1.01191414e+00  1.04297118e+00  1.07350451e+00]
nelec by numeric integration = 146.00000705964806
    CPU time for vxc     38.46 sec, wall time     15.99 sec
E1 = -4085.4064196895974  Ecoul = 1886.1402767571947  Exc = -124.3453074471265
cycle= 2 E= -835.703455600519  delta_E= 0.00574  |g|= 0.334  |ddm|= 1.01
    CPU time for cycle= 2     39.05 sec, wall time     16.08 sec
  HOMO = -0.118450085217935  LUMO = -0.0149708157050233
  mo_energy =
[-10.04289525 -10.0378873  -10.03278726 -10.03175859 -10.02471593
 -10.02098658 -10.01664687 -10.01492625 -10.01297964 -10.01232451
 -10.01173605 -10.01025221 -10.00900841 -10.00321743 -10.00133129
  -9.99756342  -9.99555044  -9.99517826  -9.99454925  -9.99251236
  -9.99083334  -9.97453434  -0.85260084  -0.82588682  -0.80716674
  -0.78344729  -0.76591134  -0.7360375   -0.73078739  -0.71580004
  -0.69276713  -0.67701401  -0.65557893  -0.6202227   -0.58730521
  -0.55906903  -0.55698387  -0.53380979  -0.52161037  -0.51669991
  -0.49437871  -0.4676162   -0.4607294   -0.44457772  -0.43530253
  -0.42838783  -0.41655213  -0.40592234  -0.39028422  -0.37966633
  -0.37317189  -0.36699182  -0.36351045  -0.35016361  -0.34581805
  -0.33999076  -0.31886383  -0.31291254  -0.30726822  -0.29339053
  -0.28372268  -0.27963499  -0.27033015  -0.26423849  -0.2576028
  -0.23939905  -0.22606775  -0.21293572  -0.20397989  -0.17866194
  -0.17036412  -0.16150523  -0.11845009  -0.01497082   0.04444317
   0.06397659   0.08798449   0.10740013   0.13851578   0.15361832
   0.16486969   0.1857288    0.19897518   0.22936766   0.23120597
   0.25460073   0.2667624    0.27275585   0.28345399   0.31581118
   0.32960156   0.33269806   0.34557705   0.36992491   0.38290633
   0.39398913   0.39642434   0.42603017   0.43954691   0.44422091
   0.46227586   0.46360536   0.47951197   0.48880935   0.49586985
   0.52768007   0.56336795   0.58494682   0.59739763   0.62651928
   0.63128926   0.65324087   0.65818536   0.66920603   0.70467942
   0.74385428   0.75417453   0.76814466   0.78678181   0.82670606
   0.86941293   0.95671119   0.98748822   1.01405779]
nelec by numeric integration = 146.0000070812351
    CPU time for vxc     38.25 sec, wall time     15.79 sec
E1 = -4088.6425784256935  Ecoul = 1889.38218275629  Exc = -124.38873497057415
cycle= 3 E= -835.741135860967  delta_E= -0.0377  |g|= 0.122  |ddm|= 0.656
    CPU time for cycle= 3     38.73 sec, wall time     15.87 sec
  HOMO = -0.123767606957012  LUMO = -0.0200122940564171
  mo_energy =
[-10.03836106 -10.03658251 -10.03231899 -10.03113386 -10.02993724
 -10.02542929 -10.02248362 -10.0215352  -10.02116815 -10.02025553
 -10.01965256 -10.01771377 -10.01548589 -10.01404821 -10.01343586
 -10.008604   -10.00851691 -10.00743197 -10.00613953 -10.00488176
 -10.00253997  -9.99891545  -0.85016836  -0.8323661   -0.81138324
  -0.78406791  -0.77196323  -0.74334274  -0.73691948  -0.71993496
  -0.69864605  -0.67951475  -0.66131133  -0.62566111  -0.59289355
  -0.56084583  -0.55893278  -0.53388314  -0.52476617  -0.52414459
  -0.49685413  -0.47214804  -0.46489995  -0.45081891  -0.43741406
  -0.42971345  -0.42124186  -0.40487549  -0.39743982  -0.38173614
  -0.37351489  -0.37200627  -0.3652592   -0.35613872  -0.353065
  -0.34496321  -0.32298521  -0.31509353  -0.31060363  -0.29868226
  -0.28541052  -0.28160261  -0.27707357  -0.27123032  -0.2634131
  -0.24676426  -0.22754627  -0.22088735  -0.20986237  -0.18306239
  -0.17705585  -0.1651557   -0.12376761  -0.02001229   0.03769839
   0.05993363   0.08186029   0.09727405   0.13512567   0.1497469
   0.16057567   0.18082696   0.19463508   0.2245181    0.23279179
   0.24962286   0.26241976   0.26768431   0.28036293   0.3130834
   0.31572293   0.3287154    0.34041364   0.37412154   0.37879225
   0.38588019   0.39818725   0.42270007   0.43353839   0.43702366
   0.4590787    0.46075134   0.48076362   0.48259089   0.49643208
   0.52710727   0.55579309   0.58545791   0.59024582   0.62064004
   0.62403763   0.64762344   0.65215202   0.6674072    0.69400062
   0.73895627   0.74719404   0.76991431   0.77722979   0.82140081
   0.86205263   0.95681732   0.98710181   1.01507653]
nelec by numeric integration = 146.0000070703957
    CPU time for vxc     37.91 sec, wall time     15.79 sec
E1 = -4088.822642207465  Ecoul = 1889.5736470585123  Exc = -124.40502016034858
cycle= 4 E= -835.746020530291  delta_E= -0.00488  |g|= 0.0414  |ddm|= 0.233
    CPU time for cycle= 4     38.36 sec, wall time     15.86 sec
  HOMO = -0.122831982688705  LUMO = -0.0187049758530364
  mo_energy =
[-10.03668114 -10.03224006 -10.03060203 -10.03004633 -10.02982908
 -10.02727724 -10.02209407 -10.02202382 -10.01615621 -10.01552074
 -10.01531263 -10.01451215 -10.01417475 -10.01392544 -10.0123575
 -10.01228735 -10.00921986 -10.00726717 -10.00423502 -10.00379851
 -10.0028798   -9.99541507  -0.85055908  -0.82962154  -0.81110883
  -0.78317909  -0.76991846  -0.74028641  -0.73482412  -0.72001339
  -0.69741312  -0.68040514  -0.65986038  -0.62428565  -0.59173291
  -0.56102015  -0.5608587   -0.5330126   -0.52241903  -0.52175287
  -0.4956877   -0.47106289  -0.4639533   -0.44808002  -0.43602674
  -0.43125356  -0.41888002  -0.40638538  -0.39497014  -0.38193847
  -0.37239974  -0.37126919  -0.36753454  -0.35376488  -0.35219599
  -0.34360706  -0.32209924  -0.31561161  -0.30950083  -0.29785677
  -0.28473257  -0.28176798  -0.27692169  -0.27069213  -0.26215389
  -0.24415517  -0.22722416  -0.21813318  -0.21031276  -0.18176726
  -0.17573523  -0.1665532   -0.12283198  -0.01870498   0.03876327
   0.0587478    0.08125085   0.10006698   0.13663849   0.15089643
   0.16158603   0.18392074   0.19640271   0.2257027    0.23283696
   0.25174447   0.2623635    0.26874461   0.28249643   0.31440272
   0.31586503   0.33044024   0.34269162   0.37083604   0.38065677
   0.38964534   0.3944052    0.42436557   0.43253845   0.43936725
   0.45900593   0.46106912   0.4792761    0.48531978   0.49580219
   0.52483779   0.55834466   0.58599043   0.59167666   0.62070312
   0.62460532   0.64721377   0.6535744    0.66815142   0.69650313
   0.73955462   0.74787748   0.76719662   0.78088574   0.82428051
   0.86508137   0.95850135   0.98988474   1.01680003]
nelec by numeric integration = 146.0000070645529
    CPU time for vxc     37.86 sec, wall time     15.84 sec
E1 = -4088.695154114491  Ecoul = 1889.4416124176826  Exc = -124.40096321825601
cycle= 5 E= -835.746510136054  delta_E= -0.00049  |g|= 0.0234  |ddm|= 0.106
    CPU time for cycle= 5     38.36 sec, wall time     15.92 sec
  HOMO = -0.122382622685935  LUMO = -0.0181508625899644
  mo_energy =
[-10.03558564 -10.0351957  -10.03227193 -10.02767465 -10.02643708
 -10.02637952 -10.02154056 -10.01850326 -10.01688758 -10.01612092
 -10.0150339  -10.01275362 -10.01201127 -10.01109108 -10.01023982
 -10.0101395  -10.0090418  -10.00770541 -10.00483273 -10.00201483
 -10.00085036  -9.99707489  -0.84942337  -0.82966495  -0.81029466
  -0.78232518  -0.76963828  -0.74052853  -0.73447986  -0.7190414
  -0.69700999  -0.67894349  -0.65938378  -0.62396127  -0.59118872
  -0.55993321  -0.55940705  -0.53261518  -0.52245327  -0.52205779
  -0.49542237  -0.47055209  -0.46346637  -0.44828769  -0.43588469
  -0.42969173  -0.41917289  -0.40511383  -0.39513786  -0.3808911
  -0.37187643  -0.37108569  -0.36566554  -0.35340195  -0.35232162
  -0.34326263  -0.32169976  -0.31462615  -0.30976367  -0.2972856
  -0.28409339  -0.28101414  -0.27605944  -0.27003239  -0.26184688
  -0.24440624  -0.22680825  -0.21813484  -0.20918426  -0.18206149
  -0.17558444  -0.16513635  -0.12238262  -0.01815086   0.03930049
   0.06033308   0.08258172   0.10017683   0.13703712   0.1509169
   0.16162305   0.18353625   0.196179     0.22611978   0.23331775
   0.25176584   0.26324813   0.26869399   0.28220248   0.31457037
   0.31777766   0.33033997   0.34258315   0.37288307   0.380764
   0.38916873   0.39624851   0.42453834   0.43414917   0.43925219
   0.46010813   0.46150638   0.48098597   0.48482668   0.49671481
   0.52645227   0.55823709   0.58692875   0.59206527   0.62219329
   0.62527184   0.64880756   0.65432163   0.6685999    0.69687896
   0.7409457    0.74840521   0.76919024   0.78066959   0.82408978
   0.86497254   0.95882447   0.98913167   1.0171373 ]
nelec by numeric integration = 146.00000706723674
    CPU time for vxc     38.42 sec, wall time     15.85 sec
E1 = -4088.6724355203414  Ecoul = 1889.4169139737112  Exc = -124.39919480598212
cycle= 6 E= -835.746721573602  delta_E= -0.000211  |g|= 0.00525  |ddm|= 0.0452
    CPU time for cycle= 6     38.98 sec, wall time     15.94 sec
  HOMO = -0.122256470633503  LUMO = -0.0179815858676888
  mo_energy =
[-10.03500071 -10.03391271 -10.03167327 -10.02759388 -10.02697215
 -10.02641426 -10.02158614 -10.01847306 -10.01662596 -10.01641795
 -10.01497216 -10.01280277 -10.01236521 -10.01077712 -10.01013139
 -10.00970325 -10.00840936 -10.00812392 -10.00432682 -10.0015949
 -10.00041252  -9.99744344  -0.84929903  -0.82942363  -0.81008194
  -0.78237012  -0.76950707  -0.74027843  -0.73439744  -0.7189023
  -0.69681128  -0.67890618  -0.65923777  -0.62377579  -0.59108382
  -0.55986685  -0.55931766  -0.53253103  -0.52224398  -0.52193219
  -0.49522777  -0.47047363  -0.46344946  -0.44821262  -0.43581546
  -0.42968282  -0.41902721  -0.40505355  -0.39500885  -0.38086743
  -0.37167647  -0.37093372  -0.36569752  -0.35330952  -0.35216404
  -0.343115    -0.32161502  -0.31453349  -0.30947416  -0.29716949
  -0.28406952  -0.28095386  -0.2760608   -0.26997677  -0.26179162
  -0.24419244  -0.22671261  -0.218053    -0.20903075  -0.18168229
  -0.17536474  -0.16505813  -0.12225647  -0.01798159   0.03947035
   0.0604428    0.08272911   0.10023653   0.1371118    0.15111845
   0.16190737   0.18368115   0.19618892   0.22627594   0.23343904
   0.25198672   0.26326267   0.26888893   0.2824446    0.31464171
   0.317685     0.33058981   0.3426513    0.37284223   0.38087571
   0.38937702   0.39621466   0.42472475   0.43434383   0.43928571
   0.46032371   0.46160405   0.48096692   0.48499428   0.49683426
   0.52671348   0.55847338   0.58695545   0.59225327   0.62225112
   0.62535786   0.6487333    0.6542736    0.66862647   0.69691551
   0.74106574   0.7485007    0.76926005   0.78076738   0.82437163
   0.86525329   0.95897434   0.98962634   1.01718859]
nelec by numeric integration = 146.00000706738751
    CPU time for vxc     38.53 sec, wall time     16.04 sec
E1 = -4088.6566869565663  Ecoul = 1889.4011391187764  Exc = -124.3991776639683
cycle= 7 E= -835.746730722748  delta_E= -9.15e-06  |g|= 0.00138  |ddm|= 0.00852
    CPU time for cycle= 7     39.10 sec, wall time     16.13 sec
  HOMO = -0.122297616718497  LUMO = -0.0180001158297653
  mo_energy =
[-10.03501757 -10.0339826  -10.03177285 -10.02786949 -10.02694817
 -10.0264084  -10.02175872 -10.01857321 -10.01665659 -10.01633537
 -10.0150361  -10.01275758 -10.01242672 -10.01079169 -10.00998842
 -10.00973052 -10.00844648 -10.00829308 -10.00446846 -10.00143803
 -10.00053436  -9.99721731  -0.84932752  -0.82947066  -0.8101273
  -0.78235823  -0.76954604  -0.74033065  -0.73439695  -0.71892564
  -0.69683952  -0.67891695  -0.6592671   -0.6238072   -0.59111671
  -0.55988294  -0.55934202  -0.53254713  -0.52228485  -0.52195877
  -0.49527563  -0.47048321  -0.46346226  -0.4482345   -0.43584654
  -0.42971352  -0.41904387  -0.405062    -0.39503354  -0.3808715
  -0.37171685  -0.37096854  -0.36569601  -0.35335151  -0.35220744
  -0.34314393  -0.32162912  -0.31455264  -0.30947602  -0.29719611
  -0.28407204  -0.28097067  -0.2760568   -0.26998231  -0.26181022
  -0.24422806  -0.22670405  -0.21806226  -0.20904823  -0.18167951
  -0.17538176  -0.16507141  -0.12229762  -0.01800012   0.03945061
   0.06042412   0.08271429   0.10022217   0.13708975   0.15112161
   0.16192397   0.1836866    0.19617309   0.2262453    0.23345169
   0.25194747   0.26325108   0.2688748    0.28242689   0.31461947
   0.31774633   0.33054995   0.34262118   0.37284376   0.38084463
   0.38931229   0.39621144   0.42469341   0.434316     0.43924265
   0.46028722   0.46155617   0.48095451   0.4849426    0.49680891
   0.52666549   0.55841772   0.58694027   0.59221121   0.62223927
   0.62532621   0.64876232   0.65428825   0.66861861   0.69688759
   0.74105755   0.74847056   0.76926987   0.78075389   0.82433021
   0.86518718   0.95892419   0.98954883   1.01715886]
nelec by numeric integration = 146.00000706749617
    CPU time for vxc     38.00 sec, wall time     15.78 sec
E1 = -4088.663599006061  Ecoul = 1889.4081521509613  Exc = -124.39927926311412
cycle= 8 E= -835.746731339203  delta_E= -6.16e-07  |g|= 0.000447  |ddm|= 0.00241
    CPU time for cycle= 8     38.42 sec, wall time     15.85 sec
  HOMO = -0.122304095568079  LUMO = -0.0179925404826794
  mo_energy =
[-10.03504808 -10.03404639 -10.03175248 -10.02788096 -10.02692182
 -10.02644595 -10.02170611 -10.01856397 -10.01657588 -10.01632928
 -10.01497539 -10.01279189 -10.01237402 -10.01082866 -10.01008582
 -10.00975596 -10.00846002 -10.00827825 -10.00437623 -10.00153586
 -10.00057502  -9.99720919  -0.84933323  -0.82946195  -0.81013949
  -0.78236324  -0.76953893  -0.74031385  -0.73439144  -0.71893791
  -0.69685096  -0.67892622  -0.65926682  -0.62380969  -0.59112338
  -0.55989361  -0.55935885  -0.53254599  -0.52227935  -0.52195092
  -0.49528311  -0.47048871  -0.46346626  -0.4482285   -0.43583836
  -0.42972023  -0.41903411  -0.40507441  -0.395027    -0.38088484
  -0.37171482  -0.3709693   -0.36572326  -0.35333958  -0.35220392
  -0.34313891  -0.3216271   -0.3145616   -0.30946159  -0.29719648
  -0.28407145  -0.28097033  -0.27606763  -0.26999092  -0.2618047
  -0.2442102   -0.22669758  -0.2180521   -0.20906687  -0.18166956
  -0.17538448  -0.16508619  -0.1223041   -0.01799254   0.03944301
   0.0604159    0.08269206   0.10023529   0.1371037    0.1511326
   0.1619316    0.18370461   0.1961902    0.22624351   0.23345869
   0.25196112   0.26325068   0.26888664   0.28243771   0.31462624
   0.31769142   0.33055526   0.34263376   0.37282156   0.3808518
   0.38933345   0.39620598   0.42469566   0.43428752   0.43924656
   0.4602785    0.46155593   0.48094638   0.48494604   0.49680089
   0.52665096   0.5584243    0.58693518   0.59221032   0.62221742
   0.62532094   0.64870874   0.6542855    0.66862167   0.69688692
   0.74104848   0.74847396   0.76923722   0.78076928   0.82434611
   0.86520205   0.95893137   0.9895475    1.01716779]
nelec by numeric integration = 146.00000706755029
    CPU time for vxc     38.20 sec, wall time     15.80 sec
E1 = -4088.6628976908096  Ecoul = 1889.4074663877554  Exc = -124.39929488652164
cycle= 9 E= -835.746731410565  delta_E= -7.14e-08  |g|= 0.000157  |ddm|= 0.00087
    CPU time for cycle= 9     38.91 sec, wall time     15.91 sec
  HOMO = -0.122306041127237  LUMO = -0.0179889849309915
  mo_energy =
[-10.03504287 -10.03402437 -10.03175348 -10.02783729 -10.02692427
 -10.02644589 -10.02171202 -10.0185733  -10.01659701 -10.01634905
 -10.01498551 -10.012793   -10.01239057 -10.0108333  -10.01008251
 -10.009742   -10.00846314 -10.00826066 -10.00440464 -10.00150982
 -10.00057165  -9.99724914  -0.84933459  -0.82946402  -0.81013523
  -0.7823693   -0.76954001  -0.74031495  -0.73439803  -0.71893854
  -0.69684801  -0.67893093  -0.65926439  -0.62380915  -0.591121
  -0.5598927   -0.55935916  -0.5325489   -0.52228007  -0.52195449
  -0.49527868  -0.47048893  -0.46346588  -0.44822982  -0.4358392
  -0.4297197   -0.41903829  -0.40507708  -0.39502879  -0.38088606
  -0.37171516  -0.37097051  -0.36571976  -0.35334068  -0.35220302
  -0.34314181  -0.32162861  -0.31456109  -0.30946657  -0.29719811
  -0.28407721  -0.28097417  -0.27606525  -0.26999004  -0.26180614
  -0.24421441  -0.22670461  -0.21806077  -0.20906469  -0.18167644
  -0.17538508  -0.16508991  -0.12230604  -0.01798898   0.03944645
   0.06041215   0.0826963    0.10023246   0.13709724   0.15112769
   0.16192521   0.1836928    0.19618949   0.22624415   0.23345177
   0.25195669   0.26325009   0.26888432   0.28243173   0.31462109
   0.31770474   0.33055497   0.34262894   0.37282087   0.38085039
   0.38933027   0.39620479   0.42469423   0.43429121   0.43924809
   0.46027935   0.46155448   0.48094222   0.48494825   0.49679869
   0.52665349   0.55842478   0.58693143   0.59221116   0.62221774
   0.62532283   0.64872026   0.65427883   0.66861561   0.69688777
   0.74104463   0.74847151   0.76923843   0.78076196   0.82434306
   0.865203     0.95893167   0.98955437   1.01716284]
nelec by numeric integration = 146.0000070675155
    CPU time for vxc     38.50 sec, wall time     15.89 sec
E1 = -4088.6631073239123  Ecoul = 1889.4076776020702  Exc = -124.39929647684973
cycle= 10 E= -835.746731419681  delta_E= -9.12e-09  |g|= 6.47e-05  |ddm|= 0.000338
    CPU time for cycle= 10     38.99 sec, wall time     15.96 sec
  HOMO = -0.122308809780745  LUMO = -0.0179904880740803
  mo_energy =
[-10.03505142 -10.03402663 -10.03174628 -10.02785635 -10.02692223
 -10.02644168 -10.02170904 -10.01856768 -10.01660734 -10.01634302
 -10.01498997 -10.01278285 -10.01238928 -10.01082623 -10.01007589
 -10.00974489 -10.0084699  -10.00827049 -10.00441182 -10.001512
 -10.00056713  -9.99723487  -0.84933667  -0.82946467  -0.81013684
  -0.78236721  -0.76954162  -0.74031741  -0.734397    -0.71893671
  -0.69684865  -0.67892836  -0.65926576  -0.62381074  -0.5911215
  -0.55989258  -0.55935624  -0.53254987  -0.52228151  -0.52195372
  -0.49528107  -0.47048879  -0.46346579  -0.44822902  -0.43584074
  -0.42971938  -0.41903877  -0.40507477  -0.39502863  -0.38088411
  -0.37171771  -0.37097033  -0.36571903  -0.35334074  -0.35220372
  -0.34314145  -0.32162881  -0.31456149  -0.30947093  -0.29719753
  -0.28407576  -0.28097374  -0.27606453  -0.26999003  -0.26180596
  -0.24421632  -0.22670543  -0.21805985  -0.20906348  -0.18167957
  -0.17538624  -0.16508754  -0.12230881  -0.01799049   0.03944607
   0.06041539   0.08269696   0.10023294   0.13709702   0.15112533
   0.16192208   0.18369305   0.19618891   0.22624405   0.23344974
   0.25195498   0.26325039   0.2688819    0.28243      0.31462134
   0.31770492   0.33055165   0.34262945   0.37282215   0.3808501
   0.38932997   0.39620215   0.4246923    0.43429428   0.43925001
   0.46027865   0.46155624   0.48094246   0.4849484    0.49679966
   0.52665323   0.55842392   0.58693329   0.59221148   0.62222099
   0.6253235    0.64872138   0.65428166   0.66861624   0.69688942
   0.74104681   0.74847315   0.76924031   0.78076361   0.8243402
   0.86519932   0.95892737   0.98954769   1.01716086]
nelec by numeric integration = 146.00000706752402
    CPU time for vxc     38.67 sec, wall time     15.90 sec
E1 = -4088.6630906798814  Ecoul = 1889.40766004119  Exc = -124.39929556131614
cycle= 11 E= -835.746731420997  delta_E= -1.32e-09  |g|= 2.98e-05  |ddm|= 0.00013
    CPU time for cycle= 11     38.92 sec, wall time     15.95 sec
  HOMO = -0.122308008549319  LUMO = -0.0179889082969194
  mo_energy =
[-10.03504497 -10.03402364 -10.03175046 -10.02785402 -10.02692544
 -10.02644294 -10.02171054 -10.01856577 -10.01660027 -10.01634163
 -10.01498718 -10.01278634 -10.01238843 -10.01082887 -10.01007438
 -10.00974352 -10.00846639 -10.00826813 -10.00440185 -10.00151043
 -10.00056773  -9.99723357  -0.8493347   -0.82946379  -0.81013594
  -0.78236607  -0.76954056  -0.74031612  -0.73439508  -0.7189362
  -0.69684784  -0.67892749  -0.65926472  -0.62380966  -0.5911211
  -0.55989188  -0.55935636  -0.53254839  -0.52228039  -0.52195304
  -0.49527969  -0.47048806  -0.46346511  -0.44822866  -0.43583986
  -0.42971874  -0.41903736  -0.40507456  -0.39502823  -0.38088359
  -0.37171596  -0.37096977  -0.36571863  -0.35334071  -0.35220308
  -0.34314087  -0.32162829  -0.3145605   -0.30946885  -0.29719698
  -0.28407482  -0.28097279  -0.27606418  -0.26998916  -0.26180585
  -0.24421502  -0.22670417  -0.21805821  -0.20906301  -0.18167703
  -0.17538522  -0.16508688  -0.12230801  -0.01798891   0.03944669
   0.06041596   0.08269726   0.10023366   0.13709845   0.15112687
   0.16192423   0.18369552   0.19618843   0.22624435   0.23345164
   0.25195689   0.26325091   0.26888355   0.2824325    0.31462197
   0.31770647   0.33055359   0.3426299    0.37282258   0.38085065
   0.38932983   0.396203     0.42469354   0.4342939    0.43924889
   0.46027906   0.46155592   0.4809435    0.48494852   0.49680017
   0.52665368   0.55842456   0.58693393   0.59221182   0.62222116
   0.6253233    0.64872213   0.65428287   0.66861757   0.69688875
   0.74104783   0.74847328   0.76924071   0.78076493   0.82434311
   0.86520151   0.95892975   0.98955086   1.01716306]
nelec by numeric integration = 146.0000070675199
    CPU time for vxc     37.92 sec, wall time     15.77 sec
E1 = -4088.6629783006833  Ecoul = 1889.4075468865242  Exc = -124.39929478617896
cycle= 12 E= -835.746731421327  delta_E= -3.3e-10  |g|= 1.15e-05  |ddm|= 6.38e-05
    CPU time for cycle= 12     38.31 sec, wall time     15.83 sec
  HOMO = -0.122308123571189  LUMO = -0.0179887272079179
  mo_energy =
[-10.03504626 -10.03402486 -10.03174831 -10.02785396 -10.02692336
 -10.02644391 -10.02170975 -10.01856756 -10.01660075 -10.01634294
 -10.01498586 -10.01278566 -10.01238732 -10.01082803 -10.01007667
 -10.00974332 -10.0084683  -10.00826655 -10.00440412 -10.00151033
 -10.00056737  -9.99723446  -0.84933525  -0.8294635   -0.81013606
  -0.7823666   -0.76954045  -0.7403157   -0.73439557  -0.71893643
  -0.69684783  -0.67892818  -0.65926456  -0.62380963  -0.59112109
  -0.55989214  -0.55935673  -0.53254874  -0.5222804   -0.52195301
  -0.49527988  -0.47048816  -0.46346532  -0.44822846  -0.43583983
  -0.42971923  -0.41903748  -0.40507503  -0.39502801  -0.38088388
  -0.37171615  -0.37096972  -0.36571906  -0.35334029  -0.35220307
  -0.34314072  -0.3216282   -0.31456092  -0.30946863  -0.29719707
  -0.2840752   -0.28097311  -0.2760644   -0.26998936  -0.26180564
  -0.24421465  -0.22670417  -0.21805858  -0.20906317  -0.18167694
  -0.17538509  -0.16508749  -0.12230812  -0.01798873   0.0394468
   0.0604154    0.08269714   0.10023387   0.13709831   0.15112693
   0.16192435   0.18369505   0.1961888    0.22624444   0.23345146
   0.25195666   0.26325059   0.26888345   0.28243207   0.31462212
   0.31770582   0.33055338   0.34263013   0.37282184   0.38085064
   0.38933046   0.39620251   0.42469354   0.43429397   0.4392493
   0.46027917   0.46155612   0.48094287   0.48494875   0.49679997
   0.52665358   0.5584248    0.58693363   0.59221197   0.6222207
   0.62532359   0.64872166   0.65428216   0.66861709   0.69688924
   0.7410474    0.74847348   0.76923999   0.78076484   0.82434288
   0.86520172   0.95892955   0.98955047   1.01716272]
nelec by numeric integration = 146.00000706752348
    CPU time for vxc     38.44 sec, wall time     15.95 sec
E1 = -4088.663020387469  Ecoul = 1889.4075897414134  Exc = -124.39929555433062
cycle= 13 E= -835.746731421376  delta_E= -4.82e-11  |g|= 3.25e-06  |ddm|= 2.36e-05
    CPU time for cycle= 13     38.94 sec, wall time     16.03 sec
  HOMO = -0.122308345037473  LUMO = -0.0179889550098123
  mo_energy =
[-10.03504669 -10.03402452 -10.03174928 -10.02785364 -10.02692447
 -10.02644292 -10.02171016 -10.01856711 -10.01660052 -10.01634227
 -10.01498724 -10.0127859  -10.01238901 -10.01082883 -10.01007592
 -10.00974384 -10.00846749 -10.00826765 -10.00440407 -10.0015116
 -10.00056845  -9.9972348   -0.84933526  -0.82946388  -0.81013619
  -0.78236665  -0.76954073  -0.74031614  -0.73439572  -0.71893671
  -0.69684812  -0.67892816  -0.65926485  -0.62380991  -0.59112132
  -0.55989225  -0.55935683  -0.53254886  -0.52228061  -0.5219533
  -0.49528006  -0.47048835  -0.46346546  -0.44822878  -0.43584004
  -0.42971921  -0.41903762  -0.40507497  -0.39502828  -0.38088412
  -0.37171626  -0.37096994  -0.3657192   -0.35334067  -0.35220327
  -0.34314099  -0.32162837  -0.3145609   -0.30946875  -0.29719725
  -0.28407528  -0.28097321  -0.27606451  -0.26998954  -0.26180585
  -0.24421508  -0.22670434  -0.21805882  -0.20906345  -0.18167713
  -0.17538539  -0.16508751  -0.12230835  -0.01798896   0.03944651
   0.06041535   0.08269686   0.10023349   0.13709809   0.15112684
   0.16192421   0.18369493   0.19618871   0.22624422   0.23345137
   0.25195647   0.26325064   0.26888344   0.28243199   0.31462185
   0.3177055    0.3305533    0.34262982   0.3728221    0.3808505
   0.38933001   0.39620278   0.42469335   0.43429328   0.43924902
   0.46027893   0.46155565   0.48094296   0.48494836   0.49679979
   0.52665341   0.55842445   0.58693342   0.5922117    0.62222053
   0.62532323   0.64872124   0.65428214   0.66861703   0.69688882
   0.74104726   0.74847313   0.76924022   0.78076452   0.82434267
   0.86520129   0.95892939   0.98955054   1.01716251]
nelec by numeric integration = 146.00000706752184
    CPU time for vxc     37.90 sec, wall time     15.70 sec
E1 = -4088.6630281160624  Ecoul = 1889.4075980951843  Exc = -124.39929617950528
Extra cycle  E= -835.746731421373  delta_E= 2.73e-12  |g|= 5.68e-06  |ddm|= 1.34e-05
    CPU time for scf_cycle    589.63 sec, wall time    240.97 sec
    CPU time for SCF    589.63 sec, wall time    240.98 sec
converged SCF energy = -835.746731421373
nelec by numeric integration = 146.00000706752184
    CPU time for vxc     37.79 sec, wall time     15.75 sec
 ** Mulliken pop  **
pop of  0 C 1s            1.99081
pop of  0 C 2s            1.15852
pop of  0 C 2px           0.97778
pop of  0 C 2py           0.93572
pop of  0 C 2pz           0.93462
pop of  1 C 1s            1.99040
pop of  1 C 2s            1.10158
pop of  1 C 2px           0.99675
pop of  1 C 2py           0.95546
pop of  1 C 2pz           0.96789
pop of  2 C 1s            1.99114
pop of  2 C 2s            1.19978
pop of  2 C 2px           0.96133
pop of  2 C 2py           0.94636
pop of  2 C 2pz           0.98266
pop of  3 C 1s            1.99116
pop of  3 C 2s            1.11010
pop of  3 C 2px           1.01380
pop of  3 C 2py           0.96597
pop of  3 C 2pz           1.00907
pop of  4 C 1s            1.99067
pop of  4 C 2s            1.15281
pop of  4 C 2px           1.02885
pop of  4 C 2py           0.93770
pop of  4 C 2pz           0.99046
pop of  5 C 1s            1.99102
pop of  5 C 2s            1.17384
pop of  5 C 2px           0.97630
pop of  5 C 2py           0.93206
pop of  5 C 2pz           0.96772
pop of  6 C 1s            1.99167
pop of  6 C 2s            1.23138
pop of  6 C 2px           0.94370
pop of  6 C 2py           0.95027
pop of  6 C 2pz           0.89703
pop of  7 C 1s            1.99126
pop of  7 C 2s            1.21749
pop of  7 C 2px           0.98425
pop of  7 C 2py           0.96847
pop of  7 C 2pz           0.95289
pop of  8 C 1s            1.99166
pop of  8 C 2s            1.15800
pop of  8 C 2px           0.95646
pop of  8 C 2py           0.94442
pop of  8 C 2pz           0.95080
pop of  9 C 1s            1.99105
pop of  9 C 2s            1.07623
pop of  9 C 2px           1.02173
pop of  9 C 2py           1.00156
pop of  9 C 2pz           0.89955
pop of  10 C 1s           1.99102
pop of  10 C 2s           1.15897
pop of  10 C 2px          1.00859
pop of  10 C 2py          0.96385
pop of  10 C 2pz          1.00617
pop of  11 C 1s           1.99071
pop of  11 C 2s           1.03865
pop of  11 C 2px          1.03525
pop of  11 C 2py          1.01449
pop of  11 C 2pz          1.01470
pop of  12 C 1s           1.99191
pop of  12 C 2s           1.21076
pop of  12 C 2px          0.95723
pop of  12 C 2py          0.91517
pop of  12 C 2pz          0.91404
pop of  13 C 1s           1.99112
pop of  13 C 2s           1.05856
pop of  13 C 2px          1.00679
pop of  13 C 2py          0.99694
pop of  13 C 2pz          0.94260
pop of  14 C 1s           1.99131
pop of  14 C 2s           1.17950
pop of  14 C 2px          0.96591
pop of  14 C 2py          0.94625
pop of  14 C 2pz          0.98783
pop of  15 C 1s           1.99136
pop of  15 C 2s           1.07793
pop of  15 C 2px          1.02356
pop of  15 C 2py          0.98521
pop of  15 C 2pz          0.95628
pop of  16 C 1s           1.99082
pop of  16 C 2s           1.13998
pop of  16 C 2px          0.98955
pop of  16 C 2py          0.95969
pop of  16 C 2pz          0.94293
pop of  17 C 1s           1.99092
pop of  17 C 2s           1.14480
pop of  17 C 2px          0.98007
pop of  17 C 2py          0.94947
pop of  17 C 2pz          0.92619
pop of  18 C 1s           1.99088
pop of  18 C 2s           1.15410
pop of  18 C 2px          0.97532
pop of  18 C 2py          0.95290
pop of  18 C 2pz          0.99470
pop of  19 C 1s           1.99129
pop of  19 C 2s           1.21077
pop of  19 C 2px          0.98969
pop of  19 C 2py          0.91117
pop of  19 C 2pz          0.94977
pop of  20 C 1s           1.99068
pop of  20 C 2s           1.14382
pop of  20 C 2px          1.00530
pop of  20 C 2py          0.99285
pop of  20 C 2pz          0.95730
pop of  21 C 1s           1.99137
pop of  21 C 2s           1.19653
pop of  21 C 2px          0.96396
pop of  21 C 2py          0.94670
pop of  21 C 2pz          0.93924
pop of  22 H 1s           0.92275
pop of  23 H 1s           0.91353
pop of  24 H 1s           0.90351
pop of  25 H 1s           0.94437
pop of  26 H 1s           0.94944
pop of  27 H 1s           0.89525
pop of  28 H 1s           0.89794
pop of  29 H 1s           0.92115
pop of  30 H 1s           0.92718
pop of  31 H 1s           0.99969
pop of  32 H 1s           0.91818
pop of  33 H 1s           0.93019
pop of  34 H 1s           0.91199
pop of  35 H 1s           0.94719
 ** Mulliken atomic charges  **
charge of    0C =      0.00255
charge of    1C =     -0.01209
charge of    2C =     -0.08127
charge of    3C =     -0.09011
charge of    4C =     -0.10050
charge of    5C =     -0.04093
charge of    6C =     -0.01405
charge of    7C =     -0.11436
charge of    8C =     -0.00134
charge of    9C =      0.00988
charge of   10C =     -0.12860
charge of   11C =     -0.09378
charge of   12C =      0.01089
charge of   13C =      0.00399
charge of   14C =     -0.07081
charge of   15C =     -0.03434
charge of   16C =     -0.02298
charge of   17C =      0.00854
charge of   18C =     -0.06790
charge of   19C =     -0.05270
charge of   20C =     -0.08994
charge of   21C =     -0.03780
charge of   22H =      0.07725
charge of   23H =      0.08647
charge of   24H =      0.09649
charge of   25H =      0.05563
charge of   26H =      0.05056
charge of   27H =      0.10475
charge of   28H =      0.10206
charge of   29H =      0.07885
charge of   30H =      0.07282
charge of   31H =      0.00031
charge of   32H =      0.08182
charge of   33H =      0.06981
charge of   34H =      0.08801
charge of   35H =      0.05281
Dipole moment(X, Y, Z, Debye):  0.63022,  0.15254,  0.77212
nelec by numeric integration = 146.00000706752184
    CPU time for vxc     39.11 sec, wall time     16.08 sec
E1 = -4088.6630281160624  Ecoul = 1889.4075980951848  Exc = -124.39929617950528
nelec by numeric integration = 146.00000706752184
    CPU time for vxc     37.97 sec, wall time     15.77 sec
E1 = -4088.6630281160624  Ecoul = 1889.4075980951843  Exc = -124.3992961795053
