System: uname_result(system='Linux', node='cosmopc18', release='5.15.0-97-generic', version='#107-Ubuntu SMP Wed Feb 7 13:26:48 UTC 2024', machine='x86_64')  Threads 4
Python 3.11.8 (main, Feb 26 2024, 21:39:34) [GCC 11.2.0]
numpy 1.26.4  scipy 1.11.4
Date: Tue Apr  9 16:08:56 2024
PySCF version 2.3.0
PySCF path  /home/saade/miniconda3/envs/tutorial/lib/python3.11/site-packages/pyscf

[ENV] PYSCFAD_BACKEND torch
[CONFIG] conf_file None
[INPUT] verbose = 5
[INPUT] max_memory = 4000 
[INPUT] num. atoms = 36
[INPUT] num. electrons = 146
[INPUT] charge = 0
[INPUT] spin (= nelec alpha-beta = 2S) = 0
[INPUT] symmetry False subgroup None
[INPUT] Mole.unit = angstrom
[INPUT] Symbol           X                Y                Z      unit          X                Y                Z       unit  Magmom
[INPUT]  1 C     -0.036176000000   3.553933000000   0.664118000000 AA   -0.068362732282   6.715960035054   1.255001134394 Bohr   0.0
[INPUT]  2 C      0.143959000000   3.673628000000  -0.747233000000 AA    0.272043083166   6.942150803534  -1.412065721237 Bohr   0.0
[INPUT]  3 C      0.053181000000   4.973121000000   1.415845000000 AA    0.100497525030   9.397836674323   2.675559284835 Bohr   0.0
[INPUT]  4 C      0.103574000000   2.409672000000   1.328656000000 AA    0.195726493626   4.553620130033   2.510795953760 Bohr   0.0
[INPUT]  5 C     -0.109447000000   4.759223000000  -1.577166000000 AA   -0.206824855155   8.993628035731  -2.980411792976 Bohr   0.0
[INPUT]  6 C      0.039112000000   2.490857000000  -1.474059000000 AA    0.073910968184   4.707037545456  -2.785567801450 Bohr   0.0
[INPUT]  7 C      0.135928000000   6.104647000000  -0.705289000000 AA    0.256866692660  11.536110917148  -1.332803048668 Bohr   0.0
[INPUT]  8 C     -0.171559000000   6.122604000000   0.763860000000 AA   -0.324199524204  11.570044729167   1.443486197510 Bohr   0.0
[INPUT]  9 C      0.128700000000   1.195388000000   0.869259000000 AA    0.243207752232   2.258955932592   1.642661441313 Bohr   0.0
[INPUT] 10 C     -0.140204000000   1.252033000000  -0.816208000000 AA   -0.264947161569   2.365999468918  -1.542409580679 Bohr   0.0
[INPUT] 11 C     -0.043957000000   0.141812000000   1.263649000000 AA   -0.083066691258   0.267985841177   2.387950527581 Bohr   0.0
[INPUT] 12 C      0.092434000000  -0.065832000000  -1.265693000000 AA    0.174674944598  -0.124404450232  -2.391813127779 Bohr   0.0
[INPUT] 13 C      0.097373000000  -1.297780000000   0.558411000000 AA    0.184008301927  -2.452448769938   1.055243854945 Bohr   0.0
[INPUT] 14 C      0.095940000000  -1.213180000000  -0.626579000000 AA    0.181300324391  -2.292577939800  -1.184062705404 Bohr   0.0
[INPUT] 15 C     -0.082134000000  -2.466814000000   1.261020000000 AA   -0.155210765515  -4.661602860243   2.382982437599 Bohr   0.0
[INPUT] 16 C     -0.057597000000  -2.474722000000  -1.346416000000 AA   -0.108842555597  -4.676546814436  -2.544357489732 Bohr   0.0
[INPUT] 17 C     -0.016940000000  -3.642102000000   0.601455000000 AA   -0.032011960550  -6.882575297731   1.136585226250 Bohr   0.0
[INPUT] 18 C      0.111022000000  -3.636471000000  -0.911921000000 AA    0.209801173801  -6.871934249923  -1.723280937239 Bohr   0.0
[INPUT] 19 C     -0.039510000000  -4.905377000000   1.403722000000 AA   -0.074663079182  -9.269819067741   2.652650135027 Bohr   0.0
[INPUT] 20 C      0.121649000000  -5.037450000000  -1.338230000000 AA    0.229883293327  -9.519400866190  -2.528888191677 Bohr   0.0
[INPUT] 21 C     -0.170317000000  -6.098222000000   0.880241000000 AA   -0.321852484358 -11.523969426797   1.663414413613 Bohr   0.0
[INPUT] 22 C     -0.016477000000  -5.975645000000  -0.611502000000 AA   -0.031137017354 -11.292332467627  -1.155571304624 Bohr   0.0
[INPUT] 23 H     -0.064563000000   4.855787000000   2.373717000000 AA   -0.122006387780   9.176107549223   4.485675027224 Bohr   0.0
[INPUT] 24 H     -0.175505000000   2.401011000000   2.673875000000 AA   -0.331656383492   4.537253212068   5.052891441321 Bohr   0.0
[INPUT] 25 H      0.072962000000   4.927864000000  -2.470043000000 AA    0.137878197501   9.312313339104  -4.667704785899 Bohr   0.0
[INPUT] 26 H     -0.099516000000   2.449561000000  -2.483826000000 AA   -0.188057985012   4.628999415416  -4.693750881074 Bohr   0.0
[INPUT] 27 H     -0.096369000000   7.127223000000  -1.345914000000 AA   -0.182111016898  13.468499498701  -2.543408847218 Bohr   0.0
[INPUT] 28 H     -0.161175000000   7.029332000000   1.056036000000 AA   -0.304576608127  13.283512318641   1.995618817681 Bohr   0.0
[INPUT] 29 H      0.054948000000  -0.057026000000   2.648622000000 AA    0.103836671093  -0.107763521979   5.005170187498 Bohr   0.0
[INPUT] 30 H      0.043997000000   0.009422000000  -2.375797000000 AA    0.083142280302   0.017804999546  -4.489605657563 Bohr   0.0
[INPUT] 31 H     -0.047499000000  -2.444603000000   2.354365000000 AA   -0.089760101191  -4.619630153290   4.449105047262 Bohr   0.0
[INPUT] 32 H     -0.046640000000  -2.356997000000  -2.553050000000 AA   -0.088136826450  -4.454078806421  -4.824565282321 Bohr   0.0
[INPUT] 33 H     -0.103170000000  -5.014220000000   2.485271000000 AA   -0.194963044271  -9.475502528317   4.696481535324 Bohr   0.0
[INPUT] 34 H     -0.006476000000  -4.854209000000  -2.473278000000 AA   -0.012237866383  -9.173125561399  -4.673818049912 Bohr   0.0
[INPUT] 35 H     -0.110609000000  -7.064245000000   1.154426000000 AA   -0.209020716912 -13.349488326828   2.181548971077 Bohr   0.0
[INPUT] 36 H      0.006078000000  -7.119970000000  -1.184711000000 AA    0.011485755385 -13.454793315120  -2.238779326760 Bohr   0.0
[INPUT] ---------------- BASIS SET ---------------- 
[INPUT] l, kappa, [nprim/nctr], expnt,             c_1 c_2 ...
[INPUT] H
[INPUT] 0    0    [3    /1   ]  3.42525091        0.15432897
                                0.62391373        0.53532814
                                0.1688554         0.44463454
[INPUT] C
[INPUT] 0    0    [3    /1   ]  71.616837         0.15432897
                                13.045096         0.53532814
                                3.5305122         0.44463454
[INPUT] 0    0    [3    /1   ]  2.9412494         -0.09996723
                                0.6834831         0.39951283
                                0.2222899         0.70011547
[INPUT] 1    0    [3    /1   ]  2.9412494         0.15591627
                                0.6834831         0.60768372
                                0.2222899         0.39195739

nuclear repulsion = 1505.16115743375
number of shells = 80
number of NR pGTOs = 372
number of NR cGTOs = 124
basis = sto3g
ecp = {}
CPU time:     56614.25
atom C rad-grids = 99, ang-grids = [ 50  50  50  50  50  50  50  50  50  50  50  50  50  50  50  50  50  50
  50  50  50  50  50  50  50  50  50  50  50  50  50  86  86  86  86  86
  86  86  86  86  86  86  86 434 434 434 434 434 434 434 434 434 590 590
 590 590 590 590 590 590 590 590 590 590 590 590 590 590 590 590 590 590
 590 590 590 590 590 590 590 434 434 434 434 434 434 434 434 434 434 434
 434 434 434 434 434 434 434 434 434]
atom H rad-grids = 99, ang-grids = [ 50  50  50  50  50  50  50  50  50  50  50  50  50  50  50  50  50  50
  50  50  50  50  50  50  50  50  50  50  86  86  86  86  86  86  86 434
 434 434 434 434 434 434 434 590 590 590 590 590 590 590 590 590 590 590
 590 590 590 590 590 590 590 590 590 590 590 590 590 590 590 434 434 434
 434 434 434 434 434 434 434 434 434 434 434 434 434 434 434 434 434 434
 434 434 434 434 434 434 434 434 434]
tot_boxes 5270, boxes in each direction [ 8 29 15]
Padding 0 grids
tot grids = 1157832


******** <class 'pyscf.dft.rks.RKS'> ********
method = RKS
initial guess = minao
damping factor = 0
level_shift factor = 0
DIIS = <class 'pyscf.scf.diis.CDIIS'>
diis_start_cycle = 1
diis_space = 8
SCF conv_tol = 1e-10
SCF conv_tol_grad = None
SCF max_cycles = 50
direct_scf = True
direct_scf_tol = 1e-13
chkfile to save SCF result = /home/saade/mlelec/tutorials/tmpqv2u0v8p
max_memory 4000 MB (current use 690 MB)
XC library pyscf.dft.libxc version 6.1.0
    S. Lehtola, C. Steigemann, M. J.T. Oliveira, and M. A.L. Marques.,  SoftwareX 7, 1–5 (2018)
XC functionals = b3lypg
    P. J. Stephens, F. J. Devlin, C. F. Chabalowski, and M. J. Frisch.,  J. Phys. Chem. 98, 11623 (1994)
radial grids: 
    Treutler-Ahlrichs [JCP 102, 346 (1995); DOI:10.1063/1.469408] (M4) radial grids
    
becke partition: Becke, JCP 88, 2547 (1988); DOI:10.1063/1.454033
pruning grids: <function nwchem_prune at 0x7f9db5616ca0>
grids dens level: 3
symmetrized grids: False
atomic radii adjust function: <function treutler_atomic_radii_adjust at 0x7f9db5617380>
User specified grid scheme (99, 590)
small_rho_cutoff = 1e-07
Set gradient conv threshold to 1e-05
Initial guess from minao.
nelec by numeric integration = 145.27188539191917
    CPU time for vxc     36.93 sec, wall time     15.47 sec
E1 = -4110.155702000682  Ecoul = 1889.450104924491  Exc = -126.15850738461538
init E= -841.702947027052
cond(S) = 25.78141159856563
    CPU time for initialize scf     46.95 sec, wall time     17.85 sec
  HOMO = -0.208447797315225  LUMO = -0.152758341210894
  mo_energy =
[-1.01586951e+01 -1.01566857e+01 -1.01371292e+01 -1.01274196e+01
 -1.01161691e+01 -1.01127284e+01 -1.01111918e+01 -1.01103774e+01
 -1.01098796e+01 -1.01092137e+01 -1.01061514e+01 -1.01058784e+01
 -1.01034480e+01 -1.00980227e+01 -1.00967420e+01 -1.00958186e+01
 -1.00951754e+01 -1.00948105e+01 -1.00940072e+01 -1.00927570e+01
 -1.00878527e+01 -1.00525587e+01 -1.13077743e+00 -1.07443428e+00
 -1.03804351e+00 -1.00209624e+00 -9.56468639e-01 -9.38187676e-01
 -9.34871924e-01 -8.92528780e-01 -8.80003296e-01 -8.61254089e-01
 -8.00023710e-01 -7.68702746e-01 -7.23635802e-01 -7.16146068e-01
 -7.01024134e-01 -6.72998411e-01 -6.48036683e-01 -6.37311284e-01
 -6.02505517e-01 -5.93557351e-01 -5.75153434e-01 -5.65984326e-01
 -5.41957940e-01 -5.29241719e-01 -5.20277351e-01 -5.05354686e-01
 -4.93970572e-01 -4.90168167e-01 -4.76388992e-01 -4.69549063e-01
 -4.61184303e-01 -4.53740531e-01 -4.45439722e-01 -4.36039356e-01
 -4.23012726e-01 -4.15791175e-01 -4.05879723e-01 -3.98850013e-01
 -3.84483328e-01 -3.74842175e-01 -3.63632841e-01 -3.58780698e-01
 -3.47355797e-01 -3.35830016e-01 -3.18856797e-01 -3.01938280e-01
 -2.94577212e-01 -2.90907303e-01 -2.81968608e-01 -2.66201625e-01
 -2.08447797e-01 -1.52758341e-01 -9.36882862e-02 -7.39416550e-02
 -6.18213111e-02 -2.16899269e-02  2.23475746e-03  1.92151262e-02
  2.43902789e-02  5.23540500e-02  8.61489066e-02  9.64368968e-02
  1.09690862e-01  1.28695376e-01  1.55850955e-01  1.61555843e-01
  1.75307314e-01  1.94781065e-01  2.01944098e-01  2.14091005e-01
  2.26321260e-01  2.46152043e-01  2.49046543e-01  2.72221893e-01
  2.96714217e-01  3.12266171e-01  3.22118433e-01  3.30314273e-01
  3.36593517e-01  3.52987472e-01  3.65771811e-01  3.77652916e-01
  4.15929692e-01  4.42929264e-01  4.60133230e-01  4.75169624e-01
  4.85280950e-01  5.03456789e-01  5.21118342e-01  5.27654506e-01
  5.36165606e-01  5.70610825e-01  5.78477971e-01  6.46000946e-01
  6.56729680e-01  6.64961801e-01  6.76323627e-01  7.12578783e-01
  7.37147741e-01  8.34619080e-01  8.63735388e-01  9.59851870e-01]
nelec by numeric integration = 146.00000580747425
    CPU time for vxc     38.09 sec, wall time     15.81 sec
E1 = -4125.356610201804  Ecoul = 1909.3766922433197  Exc = -124.79483807994815
cycle= 1 E= -835.613598604677  delta_E= 6.09  |g|= 0.307  |ddm|= 9.31
    CPU time for cycle= 1     38.52 sec, wall time     15.88 sec
  HOMO = -0.0902079902924922  LUMO = -0.00965448916568806
  mo_energy =
[-1.00840976e+01 -1.00491294e+01 -1.00396107e+01 -1.00377809e+01
 -1.00356704e+01 -1.00153029e+01 -1.00041119e+01 -9.99898800e+00
 -9.99479147e+00 -9.98920947e+00 -9.98252199e+00 -9.97851805e+00
 -9.96512279e+00 -9.96016755e+00 -9.95829422e+00 -9.95795632e+00
 -9.95601369e+00 -9.95451653e+00 -9.94488908e+00 -9.92785458e+00
 -9.91964266e+00 -9.91830011e+00 -8.30908422e-01 -8.25374452e-01
 -7.94366775e-01 -7.78147146e-01 -7.48445569e-01 -7.30598308e-01
 -7.21231276e-01 -6.95964674e-01 -6.82106016e-01 -6.69187570e-01
 -6.33209966e-01 -6.20747199e-01 -5.87482946e-01 -5.66703533e-01
 -5.52437020e-01 -5.25492846e-01 -5.23051621e-01 -5.00184656e-01
 -4.89194852e-01 -4.74248338e-01 -4.61569103e-01 -4.51236534e-01
 -4.33374201e-01 -4.16430203e-01 -3.96970310e-01 -3.87597507e-01
 -3.82585921e-01 -3.67101619e-01 -3.57632501e-01 -3.52122345e-01
 -3.47256411e-01 -3.44292418e-01 -3.34271367e-01 -3.32293959e-01
 -3.27071678e-01 -3.04219650e-01 -2.91614165e-01 -2.87530542e-01
 -2.79764183e-01 -2.76211378e-01 -2.56612240e-01 -2.44586906e-01
 -2.43553906e-01 -2.33537131e-01 -2.16755417e-01 -2.02594814e-01
 -1.87076872e-01 -1.69880106e-01 -1.52778645e-01 -1.47665042e-01
 -9.02079903e-02 -9.65448917e-03  5.70382177e-02  6.72737562e-02
  9.60630015e-02  1.23321300e-01  1.59056190e-01  1.84428206e-01
  1.91893971e-01  2.20144638e-01  2.40210343e-01  2.44549198e-01
  2.69211346e-01  2.70742470e-01  3.08369653e-01  3.16098951e-01
  3.21507272e-01  3.34907817e-01  3.43079386e-01  3.57582580e-01
  3.97810491e-01  4.03958586e-01  4.15460718e-01  4.31920724e-01
  4.34247357e-01  4.51564342e-01  4.64504763e-01  4.78999134e-01
  4.85888160e-01  5.04597059e-01  5.31910827e-01  5.35513570e-01
  5.60169882e-01  5.73877372e-01  5.98093775e-01  6.14868615e-01
  6.26137259e-01  6.47824829e-01  6.80878376e-01  6.95565344e-01
  7.01467174e-01  7.12434743e-01  7.58692107e-01  7.60337153e-01
  8.03577559e-01  8.13055774e-01  8.68056836e-01  8.88660082e-01
  9.42886115e-01  1.01079387e+00  1.07493520e+00  1.19416429e+00]
nelec by numeric integration = 146.00000584202178
    CPU time for vxc     38.03 sec, wall time     15.77 sec
E1 = -4117.772256998125  Ecoul = 1901.7277727019175  Exc = -124.65136478927927
cycle= 2 E= -835.534691651732  delta_E= 0.0789  |g|= 0.545  |ddm|= 1.39
    CPU time for cycle= 2     38.52 sec, wall time     15.84 sec
  HOMO = -0.104420459982521  LUMO = -0.0164517428351064
  mo_energy =
[-10.03572602 -10.03067412 -10.02634086 -10.01942823 -10.01782312
 -10.01562386 -10.01525863 -10.01416886 -10.01415655 -10.01386615
 -10.01165584 -10.01088556 -10.00934035 -10.00321381 -10.00151861
 -10.00005489 -10.00003435  -9.99947253  -9.99583984  -9.99292652
  -9.99243009  -9.95174694  -0.87615717  -0.8354669   -0.81563269
  -0.78548587  -0.7586252   -0.74655652  -0.74246366  -0.7128005
  -0.70462469  -0.69274481  -0.64872003  -0.61925789  -0.5926507
  -0.57833688  -0.57689269  -0.54830743  -0.52830149  -0.5150104
  -0.4938301   -0.48929992  -0.47118727  -0.46130491  -0.44509964
  -0.43063269  -0.41964338  -0.40288743  -0.39772796  -0.38579816
  -0.38018966  -0.378278    -0.36598035  -0.35248015  -0.35123541
  -0.34276272  -0.32935657  -0.3183003   -0.312484    -0.29867104
  -0.28945956  -0.2876584   -0.27455575  -0.26234246  -0.25347694
  -0.24388404  -0.2261043   -0.22087019  -0.19683803  -0.19212031
  -0.1847544   -0.16776325  -0.10442046  -0.01645174   0.04297959
   0.06819087   0.07776706   0.11896218   0.14352474   0.16217943
   0.16757568   0.20088123   0.22531728   0.22949961   0.24787173
   0.27722483   0.29443114   0.3080378    0.31402441   0.33172378
   0.34606594   0.35989195   0.36413611   0.3785668    0.39838208
   0.39887206   0.43318407   0.44579078   0.45818019   0.46498467
   0.47365967   0.49700058   0.50897122   0.51269693   0.54707222
   0.57137203   0.60203832   0.60882592   0.62422177   0.63728048
   0.65758012   0.66897643   0.68193393   0.695794     0.71883272
   0.77767354   0.79388545   0.80147776   0.82373677   0.86213207
   0.88928007   0.98633423   1.01895475   1.13083001]
nelec by numeric integration = 146.00000585522582
    CPU time for vxc     38.20 sec, wall time     15.84 sec
E1 = -4121.678682714119  Ecoul = 1905.5604660281704  Exc = -124.67907697102623
cycle= 3 E= -835.63613622322  delta_E= -0.101  |g|= 0.217  |ddm|= 1.21
    CPU time for cycle= 3     38.63 sec, wall time     15.91 sec
  HOMO = -0.111412295255482  LUMO = -0.0252915928812564
  mo_energy =
[-10.04105304 -10.03739742 -10.0362303  -10.03456536 -10.03096134
 -10.02931878 -10.02775211 -10.02208751 -10.02099953 -10.0171632
 -10.01683742 -10.01602425 -10.01586079 -10.0152249  -10.01490718
 -10.01458565 -10.0067636  -10.006752   -10.00665187 -10.00424668
  -9.99835972  -9.99548119  -0.88123686  -0.84414523  -0.82141691
  -0.79674285  -0.76215983  -0.75615973  -0.74863466  -0.72095677
  -0.71033194  -0.69474148  -0.64909137  -0.63316657  -0.59659322
  -0.58478746  -0.57959674  -0.55114201  -0.53382964  -0.52139055
  -0.50098901  -0.49176549  -0.47426042  -0.46543251  -0.45480264
  -0.43377952  -0.42397122  -0.40604426  -0.40321272  -0.39064568
  -0.38440429  -0.37924509  -0.36894436  -0.36014102  -0.35873271
  -0.3475715   -0.33573244  -0.32595912  -0.31925425  -0.3067878
  -0.29838552  -0.29712532  -0.28304284  -0.27085401  -0.25862482
  -0.2480703   -0.23478603  -0.22424335  -0.20302359  -0.19904514
  -0.19332822  -0.17237164  -0.1114123   -0.02529159   0.03848763
   0.0564036    0.07352249   0.10944173   0.13875876   0.15673658
   0.15985305   0.1923732    0.21665963   0.22526539   0.24210963
   0.27026434   0.29223053   0.29663725   0.30429908   0.32919018
   0.33933177   0.34926524   0.35420987   0.36972012   0.39121953
   0.39837433   0.4301138    0.44322658   0.45406755   0.46598131
   0.47031205   0.48790346   0.50282366   0.51118887   0.54608092
   0.56766076   0.5957981    0.60632537   0.6159773    0.62446417
   0.65680873   0.6650389    0.67703046   0.69801986   0.72051993
   0.7657696    0.78931877   0.79775782   0.81993288   0.8481934
   0.88218735   0.97598361   1.01100048   1.11080384]
nelec by numeric integration = 146.00000583387637
    CPU time for vxc     37.57 sec, wall time     15.69 sec
E1 = -4121.847414655965  Ecoul = 1905.7320653757085  Exc = -124.69683298734272
cycle= 4 E= -835.651024833844  delta_E= -0.0149  |g|= 0.0951  |ddm|= 0.482
    CPU time for cycle= 4     37.96 sec, wall time     15.75 sec
  HOMO = -0.112969306863415  LUMO = -0.0263327035370693
  mo_energy =
[-10.04040274 -10.03729048 -10.03626277 -10.02902121 -10.02543195
 -10.02366373 -10.02246924 -10.02094162 -10.02082889 -10.02012063
 -10.01975642 -10.01962245 -10.01816255 -10.0178485  -10.01667763
 -10.01547054 -10.01414359 -10.01118884 -10.01042849 -10.01033806
 -10.00862296 -10.00632008  -0.8783689   -0.84393135  -0.82403685
  -0.79544435  -0.76410864  -0.7573475   -0.7501249   -0.72017365
  -0.71199172  -0.69778374  -0.65162589  -0.63183334  -0.59829299
  -0.58556759  -0.58094125  -0.55146655  -0.53551657  -0.52159611
  -0.50170869  -0.49256902  -0.47532136  -0.46586477  -0.45625277
  -0.4359636   -0.42397021  -0.40775098  -0.40498141  -0.39001015
  -0.3833932   -0.3815567   -0.36954751  -0.36115282  -0.35822006
  -0.34898608  -0.33651123  -0.32647821  -0.31894479  -0.30623422
  -0.2993901   -0.29630086  -0.2804103   -0.27339862  -0.26049014
  -0.25197601  -0.23742028  -0.22573146  -0.2033719   -0.20043262
  -0.19142628  -0.17512931  -0.11296931  -0.0263327    0.03564168
   0.0565713    0.07148067   0.10760471   0.13585203   0.15678127
   0.16040593   0.19326097   0.21999279   0.22566082   0.24164391
   0.27281625   0.2907162    0.2972764    0.30564248   0.32710908
   0.33829903   0.34857921   0.35526419   0.36905123   0.39351296
   0.39726311   0.42934778   0.44224041   0.45045038   0.46278857
   0.46709198   0.48603427   0.49998848   0.5097325    0.54437161
   0.56432999   0.5935057    0.60374596   0.6152754    0.62353554
   0.65356558   0.6642838    0.67493519   0.69267378   0.71678223
   0.76533284   0.78452344   0.79393969   0.81980153   0.85205888
   0.88461724   0.97426638   1.01397578   1.12128357]
nelec by numeric integration = 146.00000582452074
    CPU time for vxc     37.85 sec, wall time     15.68 sec
E1 = -4121.9333288814705  Ecoul = 1905.816431105483  Exc = -124.69839306664136
cycle= 5 E= -835.654133408874  delta_E= -0.00311  |g|= 0.0274  |ddm|= 0.191
    CPU time for cycle= 5     38.39 sec, wall time     15.76 sec
  HOMO = -0.112224760577303  LUMO = -0.0249203019217015
  mo_energy =
[-10.03670348 -10.03583544 -10.03252195 -10.03089104 -10.02425629
 -10.02338873 -10.02233613 -10.02136074 -10.02045813 -10.02042468
 -10.0190929  -10.01503976 -10.01442276 -10.01393252 -10.0125232
 -10.01209489 -10.01205912 -10.01046997 -10.00979051 -10.00922056
 -10.00736228 -10.00341054  -0.87788281  -0.84225308  -0.82186547
  -0.79427145  -0.76261188  -0.75613259  -0.74886652  -0.71932378
  -0.71031274  -0.69624506  -0.65018079  -0.63108495  -0.59723866
  -0.58438948  -0.57968203  -0.55077983  -0.53388458  -0.52047819
  -0.50058269  -0.49169542  -0.47419848  -0.46473421  -0.4555524
  -0.43464034  -0.42322487  -0.40645428  -0.40364894  -0.3891847
  -0.38287901  -0.38028899  -0.36854439  -0.36028919  -0.35740671
  -0.34768961  -0.33569174  -0.32531205  -0.31852782  -0.30562521
  -0.29844236  -0.2954839   -0.28066463  -0.27232851  -0.25931654
  -0.25026906  -0.23599527  -0.22452034  -0.20250304  -0.19933674
  -0.19133858  -0.17387388  -0.11222476  -0.0249203    0.03695549
   0.05761712   0.07277677   0.10897941   0.13737157   0.15763056
   0.16100434   0.19406102   0.21944962   0.22610072   0.2429843
   0.27309939   0.29191179   0.29818161   0.30599734   0.32837128
   0.33955313   0.34962991   0.35585083   0.37011812   0.39396897
   0.39762209   0.430394     0.44352008   0.45268955   0.46446057
   0.46873301   0.48765818   0.50200154   0.51049697   0.54580419
   0.56598924   0.59556526   0.60514841   0.61600656   0.62432455
   0.65510904   0.66474368   0.67676306   0.69474494   0.71851841
   0.76618019   0.78653619   0.79521778   0.82107047   0.85217211
   0.88513354   0.97764792   1.0147342    1.12109097]
nelec by numeric integration = 146.00000582685675
    CPU time for vxc     38.11 sec, wall time     15.82 sec
E1 = -4121.795610927974  Ecoul = 1905.6745651752453  Exc = -124.69452040412497
cycle= 6 E= -835.654408723099  delta_E= -0.000275  |g|= 0.00691  |ddm|= 0.0539
    CPU time for cycle= 6     38.64 sec, wall time     15.90 sec
  HOMO = -0.112239832228189  LUMO = -0.0247485257637583
  mo_energy =
[-10.03681984 -10.03637271 -10.03255742 -10.0303282  -10.02352162
 -10.02301206 -10.02172878 -10.02127505 -10.01935334 -10.01904633
 -10.01856689 -10.0152108  -10.01435431 -10.01310557 -10.01310152
 -10.01273478 -10.01240592 -10.01123585 -10.00958973 -10.00778622
 -10.00760833 -10.00339684  -0.87779507  -0.8423108   -0.8217402
  -0.79423723  -0.76259741  -0.75585198  -0.74856293  -0.71918209
  -0.71031836  -0.69607954  -0.65011029  -0.63091077  -0.59695012
  -0.5842842   -0.5796238   -0.55055698  -0.53387869  -0.52054703
  -0.50049616  -0.4915498   -0.4741315   -0.46469799  -0.45515205
  -0.43448282  -0.42317021  -0.40630195  -0.40362519  -0.38917936
  -0.38294026  -0.38027925  -0.3684951   -0.35996981  -0.35732417
  -0.34758861  -0.33567569  -0.32513817  -0.31833314  -0.30546427
  -0.29831572  -0.29549942  -0.28054135  -0.2721476   -0.25901256
  -0.25015169  -0.23577253  -0.22447003  -0.20231229  -0.19933149
  -0.19137517  -0.1735883   -0.11223983  -0.02474853   0.03735147
   0.05772483   0.07300309   0.10922746   0.13749325   0.15788339
   0.16104956   0.19399119   0.21965756   0.22609694   0.24297378
   0.27315793   0.29200041   0.29838184   0.30608099   0.32862158
   0.33974248   0.3497935    0.35592029   0.37014953   0.39392751
   0.39800667   0.43054284   0.44361573   0.45263869   0.46447879
   0.46875879   0.48772005   0.501857     0.5107062    0.54584855
   0.56602595   0.59555225   0.60535737   0.61645335   0.62469305
   0.6552938    0.6653544    0.6766286    0.69482353   0.71853613
   0.76662191   0.78662611   0.79585718   0.82108079   0.8523523
   0.88516153   0.97742609   1.0147522    1.12075849]
nelec by numeric integration = 146.00000582720023
    CPU time for vxc     38.25 sec, wall time     15.81 sec
E1 = -4121.7962926758555  Ecoul = 1905.6749597144578  Exc = -124.69425002518784
cycle= 7 E= -835.654425552831  delta_E= -1.68e-05  |g|= 0.00188  |ddm|= 0.0123
    CPU time for cycle= 7     38.91 sec, wall time     15.91 sec
  HOMO = -0.112204545992943  LUMO = -0.024671051471471
  mo_energy =
[-10.03671438 -10.03652456 -10.03276969 -10.03030012 -10.02347862
 -10.02308973 -10.02198531 -10.02134596 -10.01965105 -10.01928738
 -10.01830916 -10.01560308 -10.01435702 -10.01324865 -10.01285424
 -10.01278639 -10.01201335 -10.01091686 -10.00971738 -10.00780167
 -10.00749472 -10.0031178   -0.87776123  -0.84232519  -0.82184062
  -0.79424414  -0.76254826  -0.75585577  -0.74865334  -0.71919628
  -0.71031928  -0.69609823  -0.65008155  -0.63090469  -0.59700103
  -0.58428659  -0.57963553  -0.55061597  -0.5338882   -0.52050907
  -0.50048859  -0.49157666  -0.47413558  -0.4647044   -0.45518768
  -0.43452753  -0.42315072  -0.40633325  -0.40362855  -0.38915423
  -0.38289085  -0.38025761  -0.36857414  -0.35998621  -0.35734698
  -0.3476405   -0.33560465  -0.32519107  -0.31833556  -0.30544346
  -0.29834815  -0.29548376  -0.2804899   -0.27209921  -0.25909887
  -0.25013666  -0.2357805   -0.22454511  -0.20232477  -0.19929417
  -0.19128594  -0.17362774  -0.11220455  -0.02467105   0.0373103
   0.05776416   0.07296451   0.10921742   0.13752831   0.15786202
   0.16108985   0.19407017   0.21970412   0.22605015   0.24291328
   0.27318632   0.29196971   0.29835572   0.30610204   0.32853121
   0.33973377   0.34985288   0.35595777   0.37019589   0.39399535
   0.39791275   0.43049612   0.44351895   0.45266422   0.46450079
   0.46873532   0.48780423   0.50189689   0.51067935   0.54581778
   0.56603938   0.59552007   0.60532733   0.61642521   0.62466883
   0.6552786    0.66523857   0.67666162   0.69478341   0.7185749
   0.76662183   0.78660362   0.79574224   0.82110289   0.85232974
   0.88521294   0.9772459    1.01476021   1.12083984]
nelec by numeric integration = 146.00000582701537
    CPU time for vxc     38.20 sec, wall time     15.81 sec
E1 = -4121.799782263301  Ecoul = 1905.6785251504148  Exc = -124.69432694925413
cycle= 8 E= -835.654426628385  delta_E= -1.08e-06  |g|= 0.000745  |ddm|= 0.00336
    CPU time for cycle= 8     38.63 sec, wall time     15.88 sec
  HOMO = -0.112225370732375  LUMO = -0.0246662946157183
  mo_energy =
[-10.03679141 -10.0363796  -10.03261835 -10.03036661 -10.02336349
 -10.02306966 -10.02195914 -10.0212439  -10.01961617 -10.01934063
 -10.01840744 -10.01559054 -10.01445132 -10.01327546 -10.01287929
 -10.0128082  -10.01214051 -10.01094857 -10.00980229 -10.00780913
 -10.00761281 -10.00320608  -0.87780423  -0.84229292  -0.82184946
  -0.79422283  -0.7625571   -0.7558827   -0.7486817   -0.71916858
  -0.71034191  -0.69613088  -0.65010608  -0.63089525  -0.59702146
  -0.58428214  -0.57964867  -0.55064029  -0.53390924  -0.52049878
  -0.50049583  -0.49160978  -0.47415446  -0.46472037  -0.45518147
  -0.43454332  -0.4231491   -0.40635032  -0.40362622  -0.38917335
  -0.38287922  -0.38028721  -0.36858816  -0.35996438  -0.35733929
  -0.34765168  -0.33562176  -0.32520477  -0.31833533  -0.30544547
  -0.29835262  -0.29546599  -0.28046137  -0.27210185  -0.25912119
  -0.25015637  -0.23579437  -0.22455608  -0.20231946  -0.19929437
  -0.19127502  -0.17365903  -0.11222537  -0.02466629   0.03728352
   0.05778469   0.07294662   0.10920028   0.13750456   0.15784411
   0.16109544   0.19409992   0.21975937   0.22606628   0.24291405
   0.273194     0.29195942   0.2983674    0.30610329   0.32850316
   0.33973313   0.34984075   0.35595857   0.37017975   0.3939976
   0.3978858    0.43047357   0.44349832   0.45267145   0.46449334
   0.46873243   0.48777472   0.50189659   0.5106467    0.54577174
   0.56602561   0.59549297   0.60529223   0.61641861   0.62465967
   0.65526175   0.66520753   0.67668453   0.69479868   0.71853679
   0.76661625   0.78662278   0.79569309   0.82105969   0.85238346
   0.8851888    0.97723363   1.0147287    1.12087818]
nelec by numeric integration = 146.00000582686013
    CPU time for vxc     38.06 sec, wall time     15.77 sec
E1 = -4121.800577854843  Ecoul = 1905.6793700034802  Exc = -124.69437640919408
cycle= 9 E= -835.654426826802  delta_E= -1.98e-07  |g|= 0.000274  |ddm|= 0.00149
    CPU time for cycle= 9     38.53 sec, wall time     15.84 sec
  HOMO = -0.112237939106648  LUMO = -0.0246718730468027
  mo_energy =
[-10.03675954 -10.03643543 -10.03266742 -10.03033546 -10.02343756
 -10.02307777 -10.02194791 -10.02127574 -10.01962297 -10.01933667
 -10.01840957 -10.0155496  -10.01442093 -10.01327165 -10.01288079
 -10.01285587 -10.01215494 -10.01099348 -10.00977742 -10.00784485
 -10.00758148 -10.00318355  -0.8777919   -0.84231668  -0.82184983
  -0.79424069  -0.76256825  -0.7558817   -0.74867357  -0.7191902
  -0.71034043  -0.69613069  -0.65010913  -0.63090668  -0.5970214
  -0.58429308  -0.57964902  -0.55063365  -0.53391023  -0.52051607
  -0.50050517  -0.49160482  -0.4741563   -0.46472106  -0.45518788
  -0.43454352  -0.42315779  -0.40635545  -0.40363511  -0.38917209
  -0.3828933   -0.38028686  -0.36857662  -0.35998003  -0.35734715
  -0.3476535   -0.33562117  -0.32520057  -0.31834021  -0.30544593
  -0.29834968  -0.29548111  -0.28047549  -0.27211198  -0.25911471
  -0.25016304  -0.23579743  -0.22455085  -0.20232944  -0.19930358
  -0.19128856  -0.17365706  -0.11223794  -0.02467187   0.03728266
   0.05776777   0.07294537   0.10920198   0.13749703   0.15784593
   0.16108484   0.19407597   0.21973872   0.22606502   0.24291597
   0.27318632   0.29196429   0.29836087   0.30610085   0.32851037
   0.33972504   0.34984024   0.35595753   0.37017869   0.39398864
   0.3978949    0.43047738   0.44350379   0.45265678   0.46448592
   0.46872542   0.48777168   0.50188066   0.51065214   0.54577857
   0.56601561   0.59549504   0.60529074   0.61641221   0.62465559
   0.65525241   0.66521984   0.67665975   0.69477323   0.71853829
   0.76660463   0.78659611   0.79569652   0.82107251   0.85235693
   0.88519163   0.97725065   1.01473996   1.12085363]
nelec by numeric integration = 146.00000582680022
    CPU time for vxc     37.88 sec, wall time     15.76 sec
E1 = -4121.801125757226  Ecoul = 1905.6799268043978  Exc = -124.69438533282786
cycle= 10 E= -835.654426851901  delta_E= -2.51e-08  |g|= 0.000127  |ddm|= 0.000589
    CPU time for cycle= 10     38.46 sec, wall time     15.84 sec
  HOMO = -0.112240691032595  LUMO = -0.0246736877926748
  mo_energy =
[-10.0367858  -10.0364304  -10.03266839 -10.03035941 -10.02342576
 -10.02308907 -10.02196475 -10.02127863 -10.01961959 -10.01933863
 -10.01840219 -10.01555262 -10.01443478 -10.0132677  -10.01287279
 -10.01285897 -10.01213886 -10.01099702 -10.00977966 -10.00782749
 -10.00762463 -10.00317648  -0.87780671  -0.84231694  -0.8218529
  -0.7942409   -0.76257017  -0.75588372  -0.74867889  -0.71918968
  -0.71034495  -0.69613244  -0.65011326  -0.6309051   -0.5970215
  -0.58429424  -0.57965387  -0.55063988  -0.53391106  -0.5205161
  -0.50050172  -0.4916083   -0.47415886  -0.46472609  -0.45518345
  -0.43454716  -0.42316187  -0.40635688  -0.40363723  -0.38918132
  -0.3828973   -0.38029164  -0.36858143  -0.35997895  -0.35735077
  -0.34765517  -0.33562563  -0.32520432  -0.31834554  -0.3054469
  -0.29835261  -0.29548339  -0.28047978  -0.27211027  -0.25911917
  -0.25016278  -0.23579801  -0.22455485  -0.20233037  -0.19930575
  -0.19129445  -0.17365802  -0.11224069  -0.02467369   0.0372826
   0.05776744   0.0729423    0.10919972   0.13749614   0.15784014
   0.16108257   0.19407296   0.2197331    0.22606125   0.24291137
   0.27317845   0.29196061   0.29836086   0.30609617   0.32850842
   0.33972439   0.34984269   0.35595593   0.37017306   0.39398296
   0.39788924   0.43047325   0.44350152   0.45265856   0.4644832
   0.46872349   0.48777193   0.50188044   0.51064607   0.54577568
   0.56601807   0.59549376   0.60529003   0.61641369   0.62465589
   0.65525011   0.66521231   0.67665846   0.69477973   0.71853
   0.76661046   0.78660131   0.79569709   0.82105857   0.85235502
   0.88517788   0.97724742   1.01472625   1.12084716]
nelec by numeric integration = 146.00000582683774
    CPU time for vxc     37.56 sec, wall time     15.66 sec
E1 = -4121.801483858098  Ecoul = 1905.680285209715  Exc = -124.69438564261725
cycle= 11 E= -835.654426857246  delta_E= -5.34e-09  |g|= 5.64e-05  |ddm|= 0.000272
    CPU time for cycle= 11     37.94 sec, wall time     15.72 sec
  HOMO = -0.112239433734082  LUMO = -0.024670394703523
  mo_energy =
[-10.03677908 -10.03642886 -10.03266251 -10.03035386 -10.02342125
 -10.02308163 -10.02195899 -10.02127928 -10.01961313 -10.01933199
 -10.01839889 -10.0155614  -10.01443099 -10.01326731 -10.01287219
 -10.01285484 -10.01215028 -10.01099446 -10.00978024 -10.00783121
 -10.00761098 -10.00317575  -0.87780254  -0.84231532  -0.82185124
  -0.79423963  -0.76256847  -0.75588092  -0.7486765   -0.71918791
  -0.71034376  -0.69613186  -0.65011125  -0.63090338  -0.59702026
  -0.58429233  -0.57965207  -0.55063776  -0.5339099   -0.52051487
  -0.500501    -0.49160699  -0.47415779  -0.46472401  -0.45518196
  -0.4345452   -0.42316016  -0.40635555  -0.40363524  -0.38917829
  -0.38289595  -0.38029014  -0.36858142  -0.35997666  -0.35734888
  -0.34765408  -0.3356238   -0.32520274  -0.31834373  -0.3054454
  -0.29835144  -0.29548178  -0.28047808  -0.27210898  -0.25911717
  -0.25016155  -0.23579625  -0.22455365  -0.20232907  -0.19930477
  -0.19129319  -0.1736572   -0.11223943  -0.02467039   0.0372834
   0.05776953   0.0729435    0.10920215   0.13749759   0.15784181
   0.16108281   0.19407462   0.2197352    0.22606184   0.24291238
   0.27318117   0.29196188   0.29836258   0.30609808   0.32850871
   0.33972572   0.34984318   0.35595746   0.37017513   0.39398444
   0.39789145   0.43047472   0.44350269   0.4526603    0.46448483
   0.46872494   0.48777326   0.50188163   0.51064786   0.54577621
   0.5660193    0.59549473   0.60529106   0.61641661   0.62465882
   0.6552519    0.66521463   0.67666063   0.69477927   0.71853227
   0.76661237   0.78660169   0.7956992    0.82106287   0.85235847
   0.88518255   0.97724602   1.01473016   1.12084948]
nelec by numeric integration = 146.00000582682517
    CPU time for vxc     38.13 sec, wall time     15.75 sec
E1 = -4121.801307162903  Ecoul = 1905.6801054006862  Exc = -124.69438252992475
cycle= 12 E= -835.654426858387  delta_E= -1.14e-09  |g|= 1.43e-05  |ddm|= 0.000105
    CPU time for cycle= 12     38.63 sec, wall time     15.82 sec
  HOMO = -0.112238455627678  LUMO = -0.0246694684787347
  mo_energy =
[-10.0367766  -10.03642764 -10.03266221 -10.03035048 -10.02341786
 -10.02308293 -10.02195922 -10.02127358 -10.01961462 -10.01933349
 -10.0183998  -10.01555719 -10.01443149 -10.01326845 -10.01287298
 -10.01284939 -10.01214625 -10.01099319 -10.00977765 -10.00783027
 -10.00760924 -10.00317635  -0.87780059  -0.84231358  -0.82185067
  -0.79423771  -0.76256741  -0.75588086  -0.7486764   -0.71918646
  -0.7103427   -0.69613119  -0.65011049  -0.63090256  -0.59702006
  -0.58429143  -0.57965124  -0.55063732  -0.53390969  -0.52051354
  -0.50050074  -0.49160651  -0.47415696  -0.4647232   -0.45518245
  -0.43454491  -0.42315864  -0.40635497  -0.40363458  -0.38917681
  -0.38289404  -0.3802893   -0.36858077  -0.35997603  -0.35734774
  -0.34765352  -0.33562305  -0.32520207  -0.31834212  -0.30544498
  -0.29835124  -0.29547987  -0.28047607  -0.27210838  -0.25911692
  -0.25016121  -0.23579602  -0.2245536   -0.20232779  -0.19930321
  -0.19129054  -0.17365664  -0.11223846  -0.02466947   0.03728387
   0.05777079   0.07294441   0.10920223   0.13749822   0.15784312
   0.16108503   0.19407696   0.21973758   0.22606264   0.24291329
   0.2731831    0.29196189   0.29836301   0.30609916   0.32850909
   0.33972665   0.34984356   0.35595813   0.37017614   0.39398665
   0.39789133   0.43047523   0.44350245   0.45266061   0.4644853
   0.46872517   0.48777375   0.5018826    0.51064862   0.54577668
   0.56601909   0.59549489   0.60529153   0.61641631   0.62465854
   0.65525292   0.66521566   0.67666221   0.69477997   0.71853345
   0.76661213   0.78660264   0.7956988    0.82106371   0.85236034
   0.88518443   0.97724706   1.01473204   1.12085389]
nelec by numeric integration = 146.00000582682222
    CPU time for vxc     37.88 sec, wall time     15.66 sec
E1 = -4121.801193620549  Ecoul = 1905.6799903338615  Exc = -124.6943810055114
cycle= 13 E= -835.654426858444  delta_E= -5.78e-11  |g|= 8.72e-06  |ddm|= 3.52e-05
    CPU time for cycle= 13     38.21 sec, wall time     15.72 sec
  HOMO = -0.112239628648442  LUMO = -0.0246703458571265
  mo_energy =
[-10.03677996 -10.0364283  -10.03266208 -10.03035479 -10.02342192
 -10.02308183 -10.02195853 -10.0212794  -10.01961346 -10.01933422
 -10.01839893 -10.01556064 -10.01443124 -10.01326818 -10.01287327
 -10.01285597 -10.01214845 -10.01099471 -10.00978155 -10.00783079
 -10.00761236 -10.00317457  -0.87780307  -0.84231531  -0.82185162
  -0.79423967  -0.76256856  -0.75588126  -0.74867706  -0.71918801
  -0.71034394  -0.69613215  -0.65011156  -0.63090347  -0.59702062
  -0.58429246  -0.57965233  -0.55063818  -0.53391022  -0.52051499
  -0.50050121  -0.49160746  -0.47415808  -0.46472433  -0.45518202
  -0.43454553  -0.42316023  -0.4063559   -0.40363542  -0.38917863
  -0.38289584  -0.38029046  -0.36858158  -0.35997659  -0.35734897
  -0.34765439  -0.33562381  -0.325203    -0.31834361  -0.30544543
  -0.2983515   -0.29548183  -0.28047756  -0.27210877  -0.25911758
  -0.25016168  -0.23579632  -0.2245539   -0.20232905  -0.1993045
  -0.19129262  -0.17365748  -0.11223963  -0.02467035   0.03728313
   0.0577696    0.07294324   0.109202     0.13749743   0.15784176
   0.1610832    0.19407502   0.21973622   0.22606204   0.24291224
   0.27318119   0.29196175   0.29836252   0.30609801   0.32850829
   0.33972566   0.3498433    0.35595738   0.37017499   0.3939846
   0.39789088   0.43047435   0.44350221   0.45266026   0.46448468
   0.46872474   0.48777322   0.50188148   0.51064751   0.54577563
   0.56601898   0.59549444   0.60529053   0.61641637   0.62465857
   0.6552516    0.66521419   0.67666053   0.69477918   0.71853196
   0.76661223   0.78660161   0.79569822   0.82106237   0.85235842
   0.88518207   0.97724578   1.01472965   1.1208492 ]
nelec by numeric integration = 146.0000058268212
    CPU time for vxc     37.72 sec, wall time     15.63 sec
E1 = -4121.801367273758  Ecoul = 1905.6801671192866  Exc = -124.69438413765208
Extra cycle  E= -835.654426858368  delta_E= 7.59e-11  |g|= 1.62e-05  |ddm|= 3.85e-05
    CPU time for scf_cycle    585.08 sec, wall time    239.31 sec
    CPU time for SCF    585.08 sec, wall time    239.31 sec
converged SCF energy = -835.654426858368
nelec by numeric integration = 146.0000058268212
    CPU time for vxc     38.08 sec, wall time     15.78 sec
 ** Mulliken pop  **
pop of  0 C 1s            1.99083
pop of  0 C 2s            1.14313
pop of  0 C 2px           1.00043
pop of  0 C 2py           0.93776
pop of  0 C 2pz           0.92359
pop of  1 C 1s            1.99042
pop of  1 C 2s            1.11980
pop of  1 C 2px           0.97356
pop of  1 C 2py           0.96337
pop of  1 C 2pz           0.95241
pop of  2 C 1s            1.99111
pop of  2 C 2s            1.17098
pop of  2 C 2px           0.96698
pop of  2 C 2py           0.94141
pop of  2 C 2pz           1.01016
pop of  3 C 1s            1.99115
pop of  3 C 2s            1.13174
pop of  3 C 2px           0.98472
pop of  3 C 2py           0.96126
pop of  3 C 2pz           0.95835
pop of  4 C 1s            1.99135
pop of  4 C 2s            1.18319
pop of  4 C 2px           1.00259
pop of  4 C 2py           0.93466
pop of  4 C 2pz           1.00416
pop of  5 C 1s            1.99073
pop of  5 C 2s            1.14420
pop of  5 C 2px           1.00036
pop of  5 C 2py           0.95397
pop of  5 C 2pz           1.00272
pop of  6 C 1s            1.99208
pop of  6 C 2s            1.30563
pop of  6 C 2px           0.89534
pop of  6 C 2py           0.92441
pop of  6 C 2pz           0.90755
pop of  7 C 1s            1.99084
pop of  7 C 2s            1.14207
pop of  7 C 2px           0.99885
pop of  7 C 2py           1.02713
pop of  7 C 2pz           0.96982
pop of  8 C 1s            1.99139
pop of  8 C 2s            1.02968
pop of  8 C 2px           1.02016
pop of  8 C 2py           1.04167
pop of  8 C 2pz           0.98208
pop of  9 C 1s            1.99143
pop of  9 C 2s            1.19666
pop of  9 C 2px           0.96537
pop of  9 C 2py           0.93881
pop of  9 C 2pz           0.88656
pop of  10 C 1s           1.99219
pop of  10 C 2s           1.15038
pop of  10 C 2px          0.97088
pop of  10 C 2py          0.97019
pop of  10 C 2pz          0.93881
pop of  11 C 1s           1.99076
pop of  11 C 2s           1.12091
pop of  11 C 2px          0.99481
pop of  11 C 2py          0.95824
pop of  11 C 2pz          0.99488
pop of  12 C 1s           1.99088
pop of  12 C 2s           1.07423
pop of  12 C 2px          0.99206
pop of  12 C 2py          0.94160
pop of  12 C 2pz          0.99541
pop of  13 C 1s           1.99034
pop of  13 C 2s           1.02485
pop of  13 C 2px          1.02325
pop of  13 C 2py          0.98330
pop of  13 C 2pz          1.01999
pop of  14 C 1s           1.99065
pop of  14 C 2s           1.13263
pop of  14 C 2px          0.99987
pop of  14 C 2py          0.95494
pop of  14 C 2pz          0.99813
pop of  15 C 1s           1.99105
pop of  15 C 2s           1.13494
pop of  15 C 2px          0.99462
pop of  15 C 2py          0.95615
pop of  15 C 2pz          0.96768
pop of  16 C 1s           1.99086
pop of  16 C 2s           1.15408
pop of  16 C 2px          0.97360
pop of  16 C 2py          0.92918
pop of  16 C 2pz          0.94119
pop of  17 C 1s           1.99084
pop of  17 C 2s           1.10307
pop of  17 C 2px          0.99323
pop of  17 C 2py          0.98660
pop of  17 C 2pz          0.93602
pop of  18 C 1s           1.99083
pop of  18 C 2s           1.15416
pop of  18 C 2px          0.97202
pop of  18 C 2py          0.96030
pop of  18 C 2pz          0.99514
pop of  19 C 1s           1.99100
pop of  19 C 2s           1.09101
pop of  19 C 2px          1.03482
pop of  19 C 2py          0.95591
pop of  19 C 2pz          1.01590
pop of  20 C 1s           1.99086
pop of  20 C 2s           1.13207
pop of  20 C 2px          1.01134
pop of  20 C 2py          1.01967
pop of  20 C 2pz          0.94376
pop of  21 C 1s           1.99142
pop of  21 C 2s           1.13370
pop of  21 C 2px          0.97066
pop of  21 C 2py          0.98646
pop of  21 C 2pz          0.96832
pop of  22 H 1s           0.89764
pop of  23 H 1s           0.96389
pop of  24 H 1s           0.88678
pop of  25 H 1s           0.90585
pop of  26 H 1s           0.95408
pop of  27 H 1s           0.88748
pop of  28 H 1s           0.98404
pop of  29 H 1s           0.92837
pop of  30 H 1s           0.91251
pop of  31 H 1s           0.94902
pop of  32 H 1s           0.91424
pop of  33 H 1s           0.91681
pop of  34 H 1s           0.89108
pop of  35 H 1s           0.95292
 ** Mulliken atomic charges  **
charge of    0C =      0.00426
charge of    1C =      0.00044
charge of    2C =     -0.08064
charge of    3C =     -0.02723
charge of    4C =     -0.11595
charge of    5C =     -0.09198
charge of    6C =     -0.02501
charge of    7C =     -0.12873
charge of    8C =     -0.06499
charge of    9C =      0.02118
charge of   10C =     -0.02245
charge of   11C =     -0.05959
charge of   12C =      0.00582
charge of   13C =     -0.04173
charge of   14C =     -0.07622
charge of   15C =     -0.04443
charge of   16C =      0.01108
charge of   17C =     -0.00977
charge of   18C =     -0.07245
charge of   19C =     -0.08865
charge of   20C =     -0.09769
charge of   21C =     -0.05056
charge of   22H =      0.10236
charge of   23H =      0.03611
charge of   24H =      0.11322
charge of   25H =      0.09415
charge of   26H =      0.04592
charge of   27H =      0.11252
charge of   28H =      0.01596
charge of   29H =      0.07163
charge of   30H =      0.08749
charge of   31H =      0.05098
charge of   32H =      0.08576
charge of   33H =      0.08319
charge of   34H =      0.10892
charge of   35H =      0.04708
Dipole moment(X, Y, Z, Debye): -0.14643,  0.14565, -0.22512
nelec by numeric integration = 146.0000058268212
    CPU time for vxc     38.15 sec, wall time     15.76 sec
E1 = -4121.801367273758  Ecoul = 1905.6801671192857  Exc = -124.69438413765207
nelec by numeric integration = 146.0000058268212
    CPU time for vxc     38.11 sec, wall time     16.02 sec
E1 = -4121.801367273758  Ecoul = 1905.6801671192866  Exc = -124.69438413765207
