System: uname_result(system='Linux', node='cosmopc18', release='5.15.0-97-generic', version='#107-Ubuntu SMP Wed Feb 7 13:26:48 UTC 2024', machine='x86_64')  Threads 4
Python 3.11.8 (main, Feb 26 2024, 21:39:34) [GCC 11.2.0]
numpy 1.26.4  scipy 1.11.4
Date: Tue Apr  9 16:38:49 2024
PySCF version 2.3.0
PySCF path  /home/saade/miniconda3/envs/tutorial/lib/python3.11/site-packages/pyscf

[ENV] PYSCFAD_BACKEND torch
[CONFIG] conf_file None
[INPUT] verbose = 5
[INPUT] max_memory = 4000 
[INPUT] num. atoms = 36
[INPUT] num. electrons = 146
[INPUT] charge = 0
[INPUT] spin (= nelec alpha-beta = 2S) = 0
[INPUT] symmetry False subgroup None
[INPUT] Mole.unit = angstrom
[INPUT] Symbol           X                Y                Z      unit          X                Y                Z       unit  Magmom
[INPUT]  1 C      0.013040000000   3.779666000000   0.553110000000 AA    0.024642028664   7.142533582330   1.045226416758 Bohr   0.0
[INPUT]  2 C      0.172695000000   3.616481000000  -0.811280000000 AA    0.326346253082   6.834158624693  -1.533097010337 Bohr   0.0
[INPUT]  3 C     -0.109104000000   5.005866000000   1.417059000000 AA   -0.206176679095   9.459715756272   2.677853412350 Bohr   0.0
[INPUT]  4 C      0.061951000000   2.463612000000   1.619790000000 AA    0.117070423143   4.655551957192   3.060959479309 Bohr   0.0
[INPUT]  5 C      0.073661000000   4.919082000000  -1.317681000000 AA    0.139199116062   9.295717764278  -2.490056209543 Bohr   0.0
[INPUT]  6 C      0.126098000000   2.330415000000  -1.544052000000 AA    0.238290684855   4.403846106578  -2.917835402087 Bohr   0.0
[INPUT]  7 C     -0.026844000000   5.995501000000  -0.685078000000 AA   -0.050727808088  11.329854869556  -1.294609793965 Bohr   0.0
[INPUT]  8 C     -0.176181000000   6.196124000000   0.863537000000 AA   -0.332933838352  11.708977393845   1.631848428429 Bohr   0.0
[INPUT]  9 C     -0.092296000000   1.112032000000   0.599415000000 AA   -0.174414162393   2.101435921752   1.132730184956 Bohr   0.0
[INPUT] 10 C      0.187966000000   1.397521000000  -0.885028000000 AA    0.355204260730   2.640931943328  -1.672460532572 Bohr   0.0
[INPUT] 11 C     -0.021944000000  -0.155424000000   1.468940000000 AA   -0.041468150077  -0.293708793184   2.775894293419 Bohr   0.0
[INPUT] 12 C     -0.016643000000   0.033638000000  -1.429668000000 AA   -0.031450711891   0.063566607378  -2.701680969055 Bohr   0.0
[INPUT] 13 C      0.036242000000  -1.142182000000   0.654383000000 AA    0.068487454206  -2.158411164408   1.236604650571 Bohr   0.0
[INPUT] 14 C     -0.113659000000  -1.164055000000  -0.628903000000 AA   -0.214784381592  -2.199745143931  -1.188454428917 Bohr   0.0
[INPUT] 15 C      0.037676000000  -2.560955000000   1.422898000000 AA    0.071197321469  -4.839503567336   2.688887523191 Bohr   0.0
[INPUT] 16 C     -0.029593000000  -2.357952000000  -1.404881000000 AA   -0.055922665204  -4.455883494870  -2.654840327605 Bohr   0.0
[INPUT] 17 C      0.022855000000  -3.636841000000   0.767936000000 AA    0.043189690577  -6.872633448589   1.451188721194 Bohr   0.0
[INPUT] 18 C      0.252826000000  -3.686491000000  -0.806753000000 AA    0.477771897169  -6.966458350674  -1.524542220171 Bohr   0.0
[INPUT] 19 C     -0.114918000000  -4.843384000000   1.263026000000 AA   -0.217163546783  -9.152669276100   2.386773228205 Bohr   0.0
[INPUT] 20 C     -0.081020000000  -4.850055000000  -1.600121000000 AA   -0.153105610612  -9.165275639077  -3.023790456165 Bohr   0.0
[INPUT] 21 C      0.019743000000  -6.068890000000   0.923202000000 AA    0.037308862877 -11.468539980112   1.744598937651 Bohr   0.0
[INPUT] 22 C      0.091880000000  -6.104985000000  -0.619168000000 AA    0.173628036325 -11.536749644578  -1.170057945095 Bohr   0.0
[INPUT] 23 H     -0.113017000000   4.758011000000   2.493831000000 AA   -0.213571177420   8.991337687668   4.712657590950 Bohr   0.0
[INPUT] 24 H      0.187423000000   2.515639000000   2.661429000000 AA    0.354178139444   4.753868738275   5.029371909975 Bohr   0.0
[INPUT] 25 H      0.079251000000   4.905173000000  -2.486862000000 AA    0.149762685098   9.269433563611  -4.699488089588 Bohr   0.0
[INPUT] 26 H     -0.011508000000   2.235549000000  -2.402542000000 AA   -0.021746968241   4.224575348045  -4.540146382765 Bohr   0.0
[INPUT] 27 H      0.049825000000   6.961034000000  -1.282890000000 AA    0.094155604156  13.154447803786  -2.424310747943 Bohr   0.0
[INPUT] 28 H     -0.049801000000   7.048237000000   1.103951000000 AA   -0.094110250729  13.319237591026   2.086165044940 Bohr   0.0
[INPUT] 29 H      0.221720000000   0.151631000000   2.440069000000 AA    0.418990076339   0.286541061994   4.611062135041 Bohr   0.0
[INPUT] 30 H     -0.032485000000  -0.115783000000  -2.421868000000 AA   -0.061387753156  -0.218798159881  -4.576667229848 Bohr   0.0
[INPUT] 31 H     -0.010224000000  -2.325787000000   2.526852000000 AA   -0.019320559898  -4.395100454074   4.775058237309 Bohr   0.0
[INPUT] 32 H     -0.015675000000  -2.446156000000  -2.476724000000 AA   -0.029621457003  -4.622564897962  -4.680330046137 Bohr   0.0
[INPUT] 33 H     -0.021915000000  -5.000251000000   2.376055000000 AA   -0.041413348020  -9.449104944083   4.490093206903 Bohr   0.0
[INPUT] 34 H     -0.196867000000  -4.815284000000  -2.536940000000 AA   -0.372024712965  -9.099567972000  -4.794121794454 Bohr   0.0
[INPUT] 35 H     -0.081411000000  -7.037048000000   1.407088000000 AA   -0.153844493527 -13.298093445418   2.659010953162 Bohr   0.0
[INPUT] 36 H      0.254125000000  -7.129640000000  -1.164016000000 AA    0.480226651405 -13.473066966744  -2.199671444612 Bohr   0.0
[INPUT] ---------------- BASIS SET ---------------- 
[INPUT] l, kappa, [nprim/nctr], expnt,             c_1 c_2 ...
[INPUT] H
[INPUT] 0    0    [3    /1   ]  3.42525091        0.15432897
                                0.62391373        0.53532814
                                0.1688554         0.44463454
[INPUT] C
[INPUT] 0    0    [3    /1   ]  71.616837         0.15432897
                                13.045096         0.53532814
                                3.5305122         0.44463454
[INPUT] 0    0    [3    /1   ]  2.9412494         -0.09996723
                                0.6834831         0.39951283
                                0.2222899         0.70011547
[INPUT] 1    0    [3    /1   ]  2.9412494         0.15591627
                                0.6834831         0.60768372
                                0.2222899         0.39195739

nuclear repulsion = 1488.37384727528
number of shells = 80
number of NR pGTOs = 372
number of NR cGTOs = 124
basis = sto3g
ecp = {}
CPU time:     60989.29
atom C rad-grids = 99, ang-grids = [ 50  50  50  50  50  50  50  50  50  50  50  50  50  50  50  50  50  50
  50  50  50  50  50  50  50  50  50  50  50  50  50  86  86  86  86  86
  86  86  86  86  86  86  86 434 434 434 434 434 434 434 434 434 590 590
 590 590 590 590 590 590 590 590 590 590 590 590 590 590 590 590 590 590
 590 590 590 590 590 590 590 434 434 434 434 434 434 434 434 434 434 434
 434 434 434 434 434 434 434 434 434]
atom H rad-grids = 99, ang-grids = [ 50  50  50  50  50  50  50  50  50  50  50  50  50  50  50  50  50  50
  50  50  50  50  50  50  50  50  50  50  86  86  86  86  86  86  86 434
 434 434 434 434 434 434 434 590 590 590 590 590 590 590 590 590 590 590
 590 590 590 590 590 590 590 590 590 590 590 590 590 590 590 434 434 434
 434 434 434 434 434 434 434 434 434 434 434 434 434 434 434 434 434 434
 434 434 434 434 434 434 434 434 434]
tot_boxes 5270, boxes in each direction [ 8 29 15]
Padding 0 grids
tot grids = 1157832


******** <class 'pyscf.dft.rks.RKS'> ********
method = RKS
initial guess = minao
damping factor = 0
level_shift factor = 0
DIIS = <class 'pyscf.scf.diis.CDIIS'>
diis_start_cycle = 1
diis_space = 8
SCF conv_tol = 1e-10
SCF conv_tol_grad = None
SCF max_cycles = 50
direct_scf = True
direct_scf_tol = 1e-13
chkfile to save SCF result = /home/saade/mlelec/tutorials/tmps8dqe0s2
max_memory 4000 MB (current use 691 MB)
XC library pyscf.dft.libxc version 6.1.0
    S. Lehtola, C. Steigemann, M. J.T. Oliveira, and M. A.L. Marques.,  SoftwareX 7, 1–5 (2018)
XC functionals = b3lypg
    P. J. Stephens, F. J. Devlin, C. F. Chabalowski, and M. J. Frisch.,  J. Phys. Chem. 98, 11623 (1994)
radial grids: 
    Treutler-Ahlrichs [JCP 102, 346 (1995); DOI:10.1063/1.469408] (M4) radial grids
    
becke partition: Becke, JCP 88, 2547 (1988); DOI:10.1063/1.454033
pruning grids: <function nwchem_prune at 0x7f9db5616ca0>
grids dens level: 3
symmetrized grids: False
atomic radii adjust function: <function treutler_atomic_radii_adjust at 0x7f9db5617380>
User specified grid scheme (99, 590)
small_rho_cutoff = 1e-07
Set gradient conv threshold to 1e-05
Initial guess from minao.
nelec by numeric integration = 145.26543322683216
    CPU time for vxc     37.05 sec, wall time     15.66 sec
E1 = -4076.8683897379733  Ecoul = 1873.3857621676946  Exc = -125.95145940389162
init E= -841.060239698892
cond(S) = 25.739951964934846
    CPU time for initialize scf     46.83 sec, wall time     18.03 sec
  HOMO = -0.193306276211724  LUMO = -0.145358935685804
  mo_energy =
[-10.17299259 -10.14406892 -10.12951606 -10.12529711 -10.12114795
 -10.12067034 -10.11255682 -10.10940214 -10.10529923 -10.10282576
 -10.09996168 -10.09984143 -10.09266837 -10.09235876 -10.09231252
 -10.09136302 -10.08611218 -10.07923189 -10.07890901 -10.07026942
 -10.06520171 -10.05426179  -1.0996913   -1.06987991  -1.03401214
  -1.01381294  -0.93677234  -0.91866262  -0.9028378   -0.88812089
  -0.86201752  -0.8262388   -0.78117634  -0.74600528  -0.72226194
  -0.71169653  -0.69832412  -0.67795713  -0.65819521  -0.6479627
  -0.60707983  -0.58723012  -0.58270643  -0.55988706  -0.54863064
  -0.5254028   -0.51697907  -0.50797749  -0.50050213  -0.49136864
  -0.48061781  -0.47526038  -0.470349    -0.45418049  -0.45313761
  -0.44619223  -0.42574267  -0.41634636  -0.40794912  -0.39961692
  -0.38471449  -0.35970012  -0.34824877  -0.33691844  -0.33590725
  -0.31438092  -0.31125711  -0.30258413  -0.295785    -0.28722685
  -0.27283858  -0.23274348  -0.19330628  -0.14535894  -0.10584532
  -0.06722442  -0.05284313  -0.03438211  -0.01662923  -0.012414
   0.04222481   0.0984887    0.10411328   0.11851079   0.13319358
   0.14435433   0.14865952   0.1581838    0.16314641   0.17145914
   0.19184403   0.22479999   0.22681537   0.24461678   0.25601562
   0.28302892   0.29664765   0.30507381   0.31858925   0.33423619
   0.35484079   0.35554258   0.36333048   0.37434125   0.3885181
   0.3895846    0.41440598   0.43492394   0.43975767   0.45219027
   0.47964283   0.50294136   0.53252826   0.54278083   0.59622729
   0.60201917   0.6609665    0.6883088    0.6974896    0.72479108
   0.75452929   0.77946827   0.78968406   0.89040519]
nelec by numeric integration = 145.99999365974452
    CPU time for vxc     38.30 sec, wall time     15.85 sec
E1 = -4092.788445072473  Ecoul = 1893.4757618425906  Exc = -124.65922926772454
cycle= 1 E= -835.598065222329  delta_E= 5.46  |g|= 0.351  |ddm|= 9.25
    CPU time for cycle= 1     38.70 sec, wall time     15.91 sec
  HOMO = -0.0662627443883416  LUMO = 0.00291725460059768
  mo_energy =
[-1.00977909e+01 -1.00544299e+01 -1.00345834e+01 -1.00338358e+01
 -1.00308516e+01 -1.00218976e+01 -1.00094797e+01 -9.99650275e+00
 -9.97916639e+00 -9.97694236e+00 -9.97170272e+00 -9.97127930e+00
 -9.96904344e+00 -9.95945052e+00 -9.95448532e+00 -9.95043879e+00
 -9.94681603e+00 -9.94520409e+00 -9.94207888e+00 -9.90240447e+00
 -9.89270551e+00 -9.88663454e+00 -8.21933182e-01 -8.01201444e-01
 -7.87408198e-01 -7.60168898e-01 -7.25497380e-01 -7.13763517e-01
 -7.08721510e-01 -7.00452932e-01 -6.69584734e-01 -6.53279422e-01
 -6.09357801e-01 -5.98299909e-01 -5.84170142e-01 -5.61516547e-01
 -5.50180636e-01 -5.40416208e-01 -5.25375904e-01 -5.04065062e-01
 -4.83324390e-01 -4.74809491e-01 -4.54306997e-01 -4.47969088e-01
 -4.37029332e-01 -4.15482866e-01 -4.10365648e-01 -4.00914672e-01
 -3.92755586e-01 -3.74526806e-01 -3.66571018e-01 -3.52565953e-01
 -3.48301489e-01 -3.37490025e-01 -3.32731491e-01 -3.16608051e-01
 -3.07333886e-01 -2.98767354e-01 -2.97254049e-01 -2.87911873e-01
 -2.61769069e-01 -2.57506761e-01 -2.47301960e-01 -2.32266856e-01
 -2.25716026e-01 -2.16182440e-01 -2.01061732e-01 -1.94189420e-01
 -1.92626456e-01 -1.80390533e-01 -1.55056185e-01 -1.28455116e-01
 -6.62627444e-02  2.91725460e-03  3.69765772e-02  7.91368358e-02
  1.04228507e-01  1.13322941e-01  1.20617416e-01  1.63467855e-01
  2.27330353e-01  2.29341747e-01  2.41552097e-01  2.69714705e-01
  2.83942484e-01  2.89392134e-01  2.95592073e-01  3.10151140e-01
  3.25908554e-01  3.34252687e-01  3.52245032e-01  3.55667489e-01
  3.68199883e-01  3.71127125e-01  3.96364016e-01  4.34122643e-01
  4.43852288e-01  4.53785424e-01  4.62858836e-01  4.70708239e-01
  4.94661449e-01  4.97129732e-01  5.15567608e-01  5.20404069e-01
  5.51848125e-01  5.59811174e-01  5.68195815e-01  5.86316381e-01
  6.08705343e-01  6.35928920e-01  6.49352945e-01  6.57182981e-01
  6.94769626e-01  7.24081121e-01  7.38518607e-01  7.51644790e-01
  8.31975293e-01  8.69190564e-01  8.89489860e-01  9.25842183e-01
  9.26690219e-01  9.29607948e-01  9.89891862e-01  1.12498265e+00]
nelec by numeric integration = 145.99999348758274
    CPU time for vxc     37.85 sec, wall time     15.76 sec
E1 = -4084.9287652917747  Ecoul = 1885.7110771938924  Exc = -124.53033747196743
cycle= 2 E= -835.374178294572  delta_E= 0.224  |g|= 0.827  |ddm|= 1.89
    CPU time for cycle= 2     38.22 sec, wall time     15.82 sec
  HOMO = -0.0840281651905751  LUMO = -0.00543973166304218
  mo_energy =
[-1.00376562e+01 -1.00349724e+01 -1.00243500e+01 -1.00160117e+01
 -1.00125824e+01 -1.00104999e+01 -1.00098310e+01 -1.00094065e+01
 -1.00066917e+01 -1.00034879e+01 -9.99807801e+00 -9.99361610e+00
 -9.98960017e+00 -9.98944591e+00 -9.98787659e+00 -9.98632423e+00
 -9.98494097e+00 -9.98024534e+00 -9.96968636e+00 -9.96824992e+00
 -9.96467419e+00 -9.95357892e+00 -8.50158343e-01 -8.24274389e-01
 -8.04454334e-01 -7.87595565e-01 -7.33948720e-01 -7.27006312e-01
 -7.13011839e-01 -7.03301057e-01 -6.87843033e-01 -6.58938491e-01
 -6.24040835e-01 -5.96948633e-01 -5.90474674e-01 -5.75391972e-01
 -5.67488803e-01 -5.47342806e-01 -5.33723910e-01 -5.21595038e-01
 -4.93190719e-01 -4.75713693e-01 -4.72710110e-01 -4.56761196e-01
 -4.50523556e-01 -4.24198863e-01 -4.12347366e-01 -4.07642859e-01
 -3.96776705e-01 -3.89876890e-01 -3.86010801e-01 -3.77960753e-01
 -3.60940295e-01 -3.59399550e-01 -3.55865956e-01 -3.33774959e-01
 -3.26040820e-01 -3.11979391e-01 -3.08237246e-01 -2.95627407e-01
 -2.86706722e-01 -2.65397205e-01 -2.61197812e-01 -2.46777968e-01
 -2.32265925e-01 -2.19259307e-01 -2.14842136e-01 -2.00876307e-01
 -1.93272251e-01 -1.88990575e-01 -1.73733352e-01 -1.27609561e-01
 -8.40281652e-02 -5.43973166e-03  3.58029153e-02  6.99496764e-02
  8.80162046e-02  1.13666281e-01  1.26359029e-01  1.36214204e-01
  1.93531918e-01  2.52649281e-01  2.55348578e-01  2.66515518e-01
  2.78968323e-01  2.90509630e-01  2.95606402e-01  3.06603237e-01
  3.16247287e-01  3.18011276e-01  3.35832707e-01  3.52251122e-01
  3.58894774e-01  3.85666035e-01  3.98259204e-01  4.19019506e-01
  4.40271976e-01  4.52017072e-01  4.54336379e-01  4.71434279e-01
  4.86616320e-01  4.98291058e-01  5.02105704e-01  5.06701207e-01
  5.23464031e-01  5.29182818e-01  5.60585513e-01  5.70068820e-01
  5.82229393e-01  5.97627437e-01  6.11891360e-01  6.39763213e-01
  6.84744981e-01  6.86924492e-01  7.31543133e-01  7.32956536e-01
  8.12793969e-01  8.31949612e-01  8.60551257e-01  8.72847711e-01
  9.17616882e-01  9.23107509e-01  9.57041273e-01  1.05585504e+00]
nelec by numeric integration = 145.99999364291727
    CPU time for vxc     38.03 sec, wall time     15.70 sec
E1 = -4089.1055360331598  Ecoul = 1889.6384267869332  Exc = -124.53225527321824
cycle= 3 E= -835.625517244167  delta_E= -0.251  |g|= 0.268  |ddm|= 1.68
    CPU time for cycle= 3     38.50 sec, wall time     15.78 sec
  HOMO = -0.0911222444959351  LUMO = -0.0140524833150989
  mo_energy =
[-10.03477703 -10.03422484 -10.02938414 -10.02748539 -10.02629606
 -10.0230433  -10.01997717 -10.01728156 -10.01704875 -10.01506757
 -10.01099251 -10.00955688 -10.00822453 -10.00519316 -10.00236888
 -10.00108592  -9.9932979   -9.99058845  -9.98998062  -9.98893827
  -9.98615014  -9.98186255  -0.85226474  -0.83650148  -0.81528042
  -0.80154599  -0.74046725  -0.73543421  -0.72680107  -0.70823057
  -0.69272279  -0.66281765  -0.62638885  -0.60874017  -0.59211078
  -0.58290488  -0.5727668   -0.55646444  -0.53756031  -0.52858713
  -0.49945201  -0.48136328  -0.47597527  -0.46289281  -0.45813302
  -0.42919597  -0.4225325   -0.41235106  -0.40841863  -0.39496625
  -0.39058317  -0.38093028  -0.3665242   -0.36350294  -0.36143211
  -0.34630254  -0.33094238  -0.3217575   -0.31853418  -0.30214571
  -0.29462501  -0.26798746  -0.26521185  -0.25632375  -0.24309452
  -0.22838006  -0.22279398  -0.21049149  -0.20869639  -0.19551022
  -0.177633    -0.13409239  -0.09112224  -0.01405248   0.02667852
   0.06700454   0.08534449   0.0977486    0.12029538   0.12517625
   0.18848773   0.24029239   0.2474012    0.25734687   0.27212487
   0.28243213   0.2873133    0.29850028   0.30715219   0.31297653
   0.32751962   0.34827361   0.35054422   0.38436048   0.39181192
   0.40895582   0.43673225   0.44123173   0.4483904    0.46635583
   0.48344294   0.4938865    0.49649746   0.49956396   0.52243792
   0.52745902   0.55271108   0.56632503   0.58118233   0.59659855
   0.61193102   0.63622071   0.66987714   0.68159602   0.72320349
   0.73121128   0.80377903   0.82394438   0.84082176   0.86787224
   0.89530011   0.91081356   0.93278876   1.05363274]
nelec by numeric integration = 145.99999359187993
    CPU time for vxc     37.92 sec, wall time     15.86 sec
E1 = -4089.1851001706486  Ecoul = 1889.7126631027343  Exc = -124.5485870155066
cycle= 4 E= -835.647176808143  delta_E= -0.0217  |g|= 0.105  |ddm|= 0.536
    CPU time for cycle= 4     38.61 sec, wall time     15.97 sec
  HOMO = -0.0944243016567417  LUMO = -0.0184280634357611
  mo_energy =
[-10.04328945 -10.0296442  -10.02855366 -10.02536062 -10.02389285
 -10.02371727 -10.0223196  -10.02041412 -10.0169036  -10.01434215
 -10.01327939 -10.01143379 -10.01030465 -10.0092166  -10.00587357
 -10.00493128 -10.00261457 -10.00062799  -9.99852253  -9.99688301
  -9.99642457  -9.99562177  -0.85632091  -0.8348591   -0.81555904
  -0.80200225  -0.74230476  -0.73465482  -0.72675458  -0.71225513
  -0.695943    -0.66749031  -0.63048599  -0.6098803   -0.59558126
  -0.58259488  -0.57662634  -0.55630211  -0.53991803  -0.52999591
  -0.50023816  -0.48257475  -0.47871815  -0.46346259  -0.45998005
  -0.42875207  -0.42171004  -0.41573484  -0.40807463  -0.39776758
  -0.39295664  -0.38423018  -0.36796649  -0.36531669  -0.36299604
  -0.3453564   -0.33427663  -0.323883    -0.31950466  -0.30638664
  -0.29719447  -0.27217469  -0.26824421  -0.2573382   -0.24329251
  -0.23098166  -0.22455913  -0.21431015  -0.20844636  -0.20055035
  -0.18166517  -0.14139296  -0.0944243   -0.01842806   0.02211134
   0.06291106   0.07982994   0.09815088   0.11590668   0.12515224
   0.18496331   0.240514     0.24514396   0.25541897   0.26643594
   0.27852648   0.28282571   0.29559231   0.30478873   0.30912399
   0.32756071   0.34832248   0.35046204   0.38024949   0.39076914
   0.41057774   0.43604654   0.44256946   0.44618231   0.46265795
   0.48026885   0.49237233   0.49532166   0.49833393   0.51774077
   0.52349774   0.55166925   0.56198829   0.57701881   0.59163772
   0.60541811   0.63248258   0.67293893   0.67921452   0.72268185
   0.72789283   0.80387906   0.82292957   0.84506765   0.86590382
   0.90002621   0.90861526   0.93993332   1.04759416]
nelec by numeric integration = 145.99999361526307
    CPU time for vxc     37.90 sec, wall time     15.74 sec
E1 = -4089.320292959394  Ecoul = 1889.8474122452083  Exc = -124.55157576939578
cycle= 5 E= -835.650609208304  delta_E= -0.00343  |g|= 0.0398  |ddm|= 0.219
    CPU time for cycle= 5     38.42 sec, wall time     15.83 sec
  HOMO = -0.0937240278396525  LUMO = -0.0158801121753347
  mo_energy =
[-10.0407625  -10.03363733 -10.02585154 -10.02510936 -10.0240257
 -10.02302997 -10.02228994 -10.02065364 -10.01613875 -10.01611748
 -10.01546201 -10.01291787 -10.00668179 -10.00523334 -10.00446635
 -10.00274034 -10.0026853  -10.00055113  -9.99893351  -9.99791766
  -9.99462234  -9.9883816   -0.85508549  -0.8349782   -0.81533454
  -0.80169211  -0.74127661  -0.73494965  -0.72730992  -0.71121169
  -0.69531899  -0.66632232  -0.62883333  -0.60914257  -0.59506399
  -0.58228935  -0.5749473   -0.55675806  -0.53990402  -0.52905413
  -0.49993973  -0.48189852  -0.4777342   -0.46369072  -0.45947822
  -0.42845721  -0.42188274  -0.41516816  -0.40810767  -0.39708815
  -0.39198148  -0.38350069  -0.36743779  -0.36482835  -0.36278941
  -0.34548435  -0.33306127  -0.32347012  -0.31944362  -0.30531704
  -0.29683885  -0.27173812  -0.26799402  -0.25737996  -0.24317041
  -0.23018255  -0.22453804  -0.21346962  -0.20912853  -0.19985087
  -0.18142466  -0.14012753  -0.09372403  -0.01588011   0.02346794
   0.06274538   0.08085902   0.09733197   0.11677939   0.12520752
   0.18598247   0.24059796   0.24598545   0.25617531   0.26784182
   0.27992399   0.28332761   0.29537201   0.30457352   0.30936776
   0.32746716   0.34844706   0.34950728   0.38094079   0.39135794
   0.40973957   0.43721385   0.44223199   0.44701439   0.46315374
   0.48091426   0.49352444   0.49491762   0.49882547   0.51983943
   0.52421777   0.55243658   0.56372952   0.57746727   0.59395137
   0.6066844    0.63276172   0.6726521    0.68096087   0.72257095
   0.72748789   0.80450378   0.82323864   0.84419067   0.86723204
   0.89997463   0.9087427    0.93844203   1.04972767]
nelec by numeric integration = 145.99999360657716
    CPU time for vxc     37.65 sec, wall time     15.69 sec
E1 = -4089.3037971977337  Ecoul = 1889.8295364800292  Exc = -124.55055719955664
cycle= 6 E= -835.650970641983  delta_E= -0.000361  |g|= 0.0253  |ddm|= 0.0964
    CPU time for cycle= 6     38.04 sec, wall time     15.76 sec
  HOMO = -0.093520119384289  LUMO = -0.0156987474729579
  mo_energy =
[-10.03978648 -10.03329561 -10.02478145 -10.02433247 -10.02387148
 -10.02306435 -10.0229284  -10.01934684 -10.0155259  -10.01239378
 -10.01151219 -10.0105377  -10.0059118  -10.00464839 -10.00380362
 -10.00297479 -10.00165837 -10.00156068  -9.99774844  -9.99611177
  -9.99378705  -9.99125995  -0.85447045  -0.83450136  -0.81468478
  -0.80091814  -0.74101869  -0.73438254  -0.72663165  -0.71084686
  -0.69492793  -0.66568142  -0.62873196  -0.6087373   -0.59458914
  -0.58203039  -0.57486903  -0.55592593  -0.53939286  -0.52885232
  -0.49944639  -0.48163641  -0.47758013  -0.46318297  -0.45899686
  -0.428234    -0.42119795  -0.41470587  -0.40744035  -0.39690252
  -0.39190377  -0.3833333   -0.36705125  -0.36454178  -0.36238164
  -0.34501251  -0.33282878  -0.32300183  -0.31868168  -0.30489064
  -0.29615632  -0.27098745  -0.26755782  -0.25683849  -0.24266287
  -0.22965676  -0.22419807  -0.21291109  -0.20810557  -0.19936806
  -0.18073393  -0.13966615  -0.09352012  -0.01569875   0.02420941
   0.06343513   0.08136621   0.09872922   0.11709893   0.125646
   0.18660535   0.24122368   0.24663935   0.25642711   0.26827594
   0.28076432   0.28374858   0.29655114   0.30574615   0.31028887
   0.32804598   0.34867945   0.35045978   0.38100972   0.39182045
   0.41062366   0.43701326   0.44301866   0.44734403   0.46423363
   0.48107621   0.49370281   0.49553339   0.49889187   0.51958817
   0.52472516   0.55282423   0.56360225   0.57776735   0.59370406
   0.60729015   0.63308534   0.67346474   0.68055713   0.72309098
   0.72793514   0.80475867   0.82351634   0.84495088   0.86758836
   0.90100751   0.90914762   0.93900231   1.05055829]
nelec by numeric integration = 145.99999360979817
    CPU time for vxc     39.50 sec, wall time     16.61 sec
E1 = -4089.2645647161435  Ecoul = 1889.7886935114361  Exc = -124.54916111268855
cycle= 7 E= -835.651185042118  delta_E= -0.000214  |g|= 0.00719  |ddm|= 0.043
    CPU time for cycle= 7     39.85 sec, wall time     16.67 sec
  HOMO = -0.093569173897907  LUMO = -0.0155892511474904
  mo_energy =
[-10.04011368 -10.03225345 -10.0252972  -10.0242628  -10.02344818
 -10.02339965 -10.02277157 -10.01874992 -10.01483518 -10.0128363
 -10.01144441 -10.01040013 -10.00615838 -10.00541853 -10.00350647
 -10.00205879 -10.00143452 -10.0008584   -9.99667558  -9.99643953
  -9.99490599  -9.99104372  -0.85448924  -0.83441015  -0.81467259
  -0.80101879  -0.74092213  -0.73426396  -0.72656951  -0.71062242
  -0.69469295  -0.66565779  -0.62865523  -0.60865317  -0.59447682
  -0.58202994  -0.57477823  -0.55593969  -0.5392144   -0.52884209
  -0.49941977  -0.4815785   -0.4775174   -0.4630487   -0.45897767
  -0.42815677  -0.42135644  -0.41461193  -0.40753658  -0.39673475
  -0.39182917  -0.38317756  -0.36698508  -0.36440657  -0.36231938
  -0.34496649  -0.33277199  -0.32289607  -0.31871887  -0.30478557
  -0.29611332  -0.27095369  -0.26740478  -0.25680108  -0.24263716
  -0.22958609  -0.22402959  -0.21271703  -0.20822913  -0.19914047
  -0.18052213  -0.13953798  -0.09356917  -0.01558925   0.0243286
   0.06368767   0.08151889   0.09856143   0.11739707   0.12579948
   0.18656392   0.24119588   0.2468551    0.25662797   0.26855654
   0.28093587   0.2839504    0.29658483   0.30569797   0.31029014
   0.32801079   0.34890834   0.35030404   0.38133015   0.39179522
   0.41045106   0.43704813   0.44281332   0.44738081   0.46404324
   0.4812622    0.49388765   0.49558465   0.49905207   0.51972678
   0.52475686   0.55276376   0.56375097   0.57806417   0.59377819
   0.60736255   0.63340615   0.6733276    0.68072195   0.72330928
   0.72835269   0.80479189   0.82370008   0.84500957   0.86743043
   0.90057043   0.90942558   0.93907662   1.05030449]
nelec by numeric integration = 145.9999936093254
    CPU time for vxc     38.19 sec, wall time     15.89 sec
E1 = -4089.2601289168024  Ecoul = 1889.784185322416  Exc = -124.54910530601548
cycle= 8 E= -835.651201625124  delta_E= -1.66e-05  |g|= 0.00224  |ddm|= 0.0113
    CPU time for cycle= 8     38.66 sec, wall time     15.96 sec
  HOMO = -0.0935742349876379  LUMO = -0.0155613664885672
  mo_energy =
[-10.04015355 -10.03191628 -10.0253565  -10.02434791 -10.02334723
 -10.02333524 -10.02274365 -10.01876638 -10.01461564 -10.01284323
 -10.01168401 -10.01063494 -10.00631557 -10.00541012 -10.00348943
 -10.00206154 -10.0015753  -10.00082226  -9.99703424  -9.99613083
  -9.99461331  -9.99112836  -0.85449086  -0.83441543  -0.81465079
  -0.801029    -0.74100193  -0.73420554  -0.7265321   -0.71066593
  -0.69471871  -0.66566895  -0.62867071  -0.60864014  -0.59446416
  -0.58202702  -0.57478265  -0.55596526  -0.53921398  -0.52884608
  -0.4994389   -0.48161953  -0.47748304  -0.46304242  -0.45898586
  -0.42817645  -0.42133832  -0.41462951  -0.40753428  -0.3967173
  -0.39183512  -0.38315913  -0.36699176  -0.36440372  -0.3623586
  -0.34495884  -0.33275465  -0.32290978  -0.31871624  -0.30477839
  -0.2961196   -0.27097851  -0.26738352  -0.25677623  -0.24269045
  -0.22959549  -0.22399254  -0.21274063  -0.20821068  -0.19915267
  -0.18054279  -0.13957105  -0.09357423  -0.01556137   0.02430299
   0.06370632   0.08151999   0.09858591   0.11742272   0.12571829
   0.18655371   0.24119722   0.24682211   0.2566231    0.26856007
   0.28088325   0.28397323   0.29656292   0.30568927   0.31026267
   0.32800881   0.34893898   0.35030932   0.38137455   0.39178275
   0.41048378   0.43702215   0.4428218    0.44735476   0.46406056
   0.48130398   0.49384242   0.49556926   0.49904954   0.51974157
   0.52473734   0.55274841   0.56375832   0.57813013   0.59379596
   0.60733186   0.63347264   0.67330167   0.68064585   0.72319614
   0.72842827   0.80478251   0.8237243    0.84493143   0.86743135
   0.90058647   0.90947417   0.93905384   1.05028709]
nelec by numeric integration = 145.99999360959603
    CPU time for vxc     38.63 sec, wall time     16.12 sec
E1 = -4089.2632033318696  Ecoul = 1889.7872670242243  Exc = -124.54911393616484
cycle= 9 E= -835.651202968532  delta_E= -1.34e-06  |g|= 0.00111  |ddm|= 0.00353
    CPU time for cycle= 9     39.17 sec, wall time     16.20 sec
  HOMO = -0.0936014736048729  LUMO = -0.0155682821032433
  mo_energy =
[-10.04021313 -10.03203466 -10.02545724 -10.02434736 -10.02330382
 -10.0232966  -10.02274735 -10.01882338 -10.01466751 -10.01285497
 -10.01157806 -10.01051892 -10.00635253 -10.00539918 -10.00354694
 -10.00198224 -10.00152038 -10.00094375  -9.99701779  -9.99632383
  -9.99464147  -9.9911194   -0.85453666  -0.83443468  -0.8146763
  -0.80104449  -0.74098444  -0.73423288  -0.72655123  -0.71066933
  -0.69473232  -0.66568025  -0.62868071  -0.60863596  -0.59448417
  -0.5820436   -0.57479049  -0.55596377  -0.53922841  -0.52885577
  -0.49945661  -0.48161581  -0.47751064  -0.46306167  -0.45898678
  -0.42819271  -0.42133352  -0.41463819  -0.40754114  -0.39673181
  -0.39184684  -0.383172    -0.36701332  -0.36442711  -0.3623647
  -0.34497814  -0.33277152  -0.32290727  -0.31872605  -0.30479224
  -0.2961375   -0.27099449  -0.26739159  -0.25678264  -0.24267613
  -0.22958368  -0.22401016  -0.21273203  -0.20822339  -0.19915932
  -0.18055133  -0.1395657   -0.09360147  -0.01556828   0.02432104
   0.06368556   0.08151114   0.09858189   0.1174069    0.12572908
   0.18652747   0.24118886   0.24683097   0.25661445   0.26855459
   0.28092255   0.28395507   0.29656647   0.30568169   0.31025064
   0.32800184   0.34891375   0.35030778   0.38136532   0.39177187
   0.41048353   0.43701411   0.4428231    0.44736385   0.46405237
   0.48129205   0.49383628   0.49555668   0.4990433    0.51972504
   0.52472486   0.55275168   0.56374133   0.57809406   0.59376573
   0.60733311   0.63344354   0.6732948    0.68064618   0.72319457
   0.72837659   0.80475659   0.82369823   0.84495603   0.86737083
   0.90059375   0.90943724   0.9390475    1.05021632]
nelec by numeric integration = 145.99999360969386
    CPU time for vxc     38.00 sec, wall time     15.83 sec
E1 = -4089.264818156569  Ecoul = 1889.7889289906036  Exc = -124.54916150988109
cycle= 10 E= -835.651203400569  delta_E= -4.32e-07  |g|= 0.000396  |ddm|= 0.0017
    CPU time for cycle= 10     38.46 sec, wall time     15.90 sec
  HOMO = -0.0936258640358101  LUMO = -0.0155891960062364
  mo_energy =
[-10.04022231 -10.03207167 -10.02546478 -10.02442292 -10.02338612
 -10.02335236 -10.02286109 -10.01876315 -10.01472403 -10.01282071
 -10.01166634 -10.01061074 -10.00630421 -10.00543458 -10.00352893
 -10.00195585 -10.00156735 -10.00092719  -9.99698612  -9.99636846
  -9.99461497  -9.99125148  -0.85456536  -0.83446957  -0.8146884
  -0.80107261  -0.74103541  -0.73424838  -0.72656371  -0.71067575
  -0.694743    -0.66570632  -0.62870715  -0.60864092  -0.59450333
  -0.58207536  -0.57480302  -0.55596755  -0.53923953  -0.52887867
  -0.49946999  -0.48164541  -0.47751906  -0.46307335  -0.45899703
  -0.42821306  -0.42134087  -0.41464567  -0.40756248  -0.39675431
  -0.39186713  -0.38318795  -0.3670352   -0.36444151  -0.36239333
  -0.34500015  -0.33280037  -0.32292735  -0.31874138  -0.30480715
  -0.29615114  -0.2710254   -0.26739685  -0.25679112  -0.2427056
  -0.22960524  -0.22402873  -0.21274915  -0.20823039  -0.19917263
  -0.18057141  -0.13958337  -0.09362586  -0.0155892    0.02430097
   0.0636648    0.0814812    0.09857208   0.11741116   0.1256925
   0.18650158   0.24116252   0.24681295   0.25660167   0.2685536
   0.28090138   0.28394735   0.29655427   0.30566843   0.31022193
   0.32797902   0.34892264   0.35030788   0.38136376   0.39173716
   0.41047081   0.43697251   0.44281212   0.44733098   0.4640454
   0.48128014   0.49381062   0.49555483   0.49904951   0.51970913
   0.5246962    0.55271813   0.56373017   0.57808049   0.59371376
   0.60730326   0.63343104   0.67328341   0.68059344   0.72318823
   0.72838118   0.80471642   0.8236772    0.84489426   0.86735515
   0.9005756    0.90943535   0.93899951   1.0502013 ]
nelec by numeric integration = 145.99999360981124
    CPU time for vxc     38.11 sec, wall time     15.81 sec
E1 = -4089.268321374577  Ecoul = 1889.7924743924323  Exc = -124.54920372341073
cycle= 11 E= -835.651203430278  delta_E= -2.97e-08  |g|= 0.000276  |ddm|= 0.000973
    CPU time for cycle= 11     38.57 sec, wall time     15.88 sec
  HOMO = -0.0936107634017967  LUMO = -0.0155710672358471
  mo_energy =
[-10.04021721 -10.03204478 -10.02545783 -10.02436998 -10.02335322
 -10.02332678 -10.02279301 -10.0187791  -10.01468333 -10.01282866
 -10.01161679 -10.0105595  -10.00631651 -10.00540726 -10.00351403
 -10.00194271 -10.00155106 -10.00090715  -9.99699606  -9.99635441
  -9.99461824  -9.99117275  -0.85454721  -0.83444549  -0.81467674
  -0.80105376  -0.74100584  -0.73423479  -0.7265514   -0.71066659
  -0.69473094  -0.66568746  -0.62868975  -0.60863016  -0.59448959
  -0.5820555   -0.57479116  -0.55596306  -0.53922953  -0.52886409
  -0.49945973  -0.48162728  -0.47751072  -0.46306301  -0.45898641
  -0.42820032  -0.42133505  -0.41463752  -0.40754775  -0.3967382
  -0.39185271  -0.38317529  -0.36701962  -0.36442835  -0.36237494
  -0.34498388  -0.33278081  -0.32291188  -0.31872944  -0.30479359
  -0.29613877  -0.27100586  -0.26738827  -0.2567815   -0.24268841
  -0.22958938  -0.22401449  -0.21273192  -0.20822129  -0.19915952
  -0.18055446  -0.13956693  -0.09361076  -0.01557107   0.02432038
   0.0636816    0.08150067   0.09858228   0.11741759   0.12571408
   0.18651971   0.24118058   0.24683088   0.2566154    0.26856365
   0.28092051   0.28395902   0.29656655   0.30568058   0.31024032
   0.32799492   0.34892516   0.35030989   0.38136992   0.39175786
   0.41047912   0.43699672   0.44281864   0.44735191   0.46405246
   0.48129111   0.49382686   0.49555978   0.49905262   0.51972054
   0.52471308   0.55273703   0.56373912   0.57809414   0.59374396
   0.60732213   0.63344316   0.67329251   0.68062248   0.72319449
   0.72838843   0.80474286   0.82369624   0.84493185   0.86736395
   0.90058901   0.90944659   0.93903167   1.05020994]
nelec by numeric integration = 145.99999360978123
    CPU time for vxc     38.04 sec, wall time     15.85 sec
E1 = -4089.2663425694445  Ecoul = 1889.7904641870102  Exc = -124.54917235207964
cycle= 12 E= -835.651203459236  delta_E= -2.9e-08  |g|= 5.1e-05  |ddm|= 0.000477
    CPU time for cycle= 12     38.41 sec, wall time     15.91 sec
  HOMO = -0.0936079616187455  LUMO = -0.0155690249331016
  mo_energy =
[-10.04021248 -10.03203774 -10.02544666 -10.02437456 -10.02333896
 -10.02331557 -10.02279675 -10.01877897 -10.01468199 -10.01282613
 -10.01162033 -10.01055721 -10.00631451 -10.00540078 -10.0035194
 -10.00194377 -10.00153165 -10.0009099   -9.99698576  -9.99634532
  -9.99461819  -9.99117811  -0.85454413  -0.83444305  -0.81467321
  -0.80105075  -0.74100391  -0.73423204  -0.72654855  -0.71066383
  -0.69472896  -0.66568645  -0.62868783  -0.60862929  -0.59448805
  -0.58205461  -0.57478949  -0.55596006  -0.53922704  -0.52886132
  -0.49945751  -0.48162588  -0.47750857  -0.46306113  -0.45898565
  -0.42819816  -0.42133311  -0.41463546  -0.40754579  -0.39673626
  -0.39185154  -0.38317408  -0.36701755  -0.36442766  -0.3623732
  -0.34498047  -0.33277943  -0.32290956  -0.31872646  -0.30479186
  -0.29613649  -0.27100421  -0.26738733  -0.25678037  -0.2426846
  -0.22958718  -0.22401151  -0.2127311   -0.20821864  -0.19915699
  -0.18055256  -0.13956637  -0.09360796  -0.01556902   0.02432075
   0.06368369   0.0815032    0.09858496   0.11741925   0.12571855
   0.18652152   0.24118332   0.24683144   0.25661705   0.2685648
   0.28092092   0.28396123   0.2965683    0.30568293   0.31024184
   0.3279953    0.34892523   0.3503117    0.38137183   0.39175969
   0.41048001   0.43699627   0.44282138   0.4473527    0.46405364
   0.48129261   0.49382967   0.49556256   0.49905323   0.5197225
   0.52471494   0.55274049   0.56374247   0.5780961    0.59374616
   0.60732345   0.63344657   0.67329704   0.68062477   0.72319927
   0.72839047   0.80474389   0.82369689   0.84493386   0.86736851
   0.90059396   0.90944735   0.93903385   1.05021588]
nelec by numeric integration = 145.99999360978276
    CPU time for vxc     38.03 sec, wall time     15.80 sec
E1 = -4089.2661502020546  Ecoul = 1889.790266323971  Exc = -124.54916685687724
cycle= 13 E= -835.651203459683  delta_E= -4.47e-10  |g|= 3.46e-05  |ddm|= 0.000109
    CPU time for cycle= 13     38.44 sec, wall time     15.87 sec
  HOMO = -0.0936100940323156  LUMO = -0.0155702760841189
  mo_energy =
[-10.04021455 -10.03204058 -10.0254538  -10.02437609 -10.02334631
 -10.02331771 -10.02279758 -10.01877819 -10.01468263 -10.01282648
 -10.0116176  -10.01055749 -10.00631778 -10.00540928 -10.00352024
 -10.0019428  -10.00154153 -10.00091361  -9.99698999  -9.99634752
  -9.99461885  -9.99117804  -0.85454613  -0.83444556  -0.81467572
  -0.8010533   -0.74100566  -0.73423383  -0.72655062  -0.7106654
  -0.69473032  -0.6656874   -0.62868914  -0.60863037  -0.59448883
  -0.58205598  -0.57479055  -0.55596198  -0.53922838  -0.52886329
  -0.49945903  -0.48162694  -0.47750991  -0.46306234  -0.45898638
  -0.42819965  -0.42133474  -0.41463674  -0.40754764  -0.39673744
  -0.39185266  -0.38317474  -0.36701923  -0.36442858  -0.36237478
  -0.34498317  -0.33278066  -0.32291118  -0.31872858  -0.30479301
  -0.29613819  -0.27100545  -0.26738803  -0.25678155  -0.2426872
  -0.22958856  -0.22401321  -0.21273185  -0.20822093  -0.19915828
  -0.18055383  -0.13956689  -0.09361009  -0.01557028   0.02432005
   0.06368253   0.08150209   0.09858281   0.11741849   0.1257155
   0.18651987   0.241181     0.24683071   0.25661561   0.26856425
   0.28092073   0.28395967   0.29656699   0.30568115   0.31024064
   0.32799423   0.3489249    0.35031024   0.38137153   0.3917579
   0.41047889   0.43699539   0.4428194    0.4473519    0.46405277
   0.48129201   0.49382798   0.49556051   0.49905242   0.5197216
   0.5247138    0.55273813   0.56374083   0.57809525   0.59374447
   0.60732293   0.63344527   0.67329365   0.68062279   0.72319647
   0.72838943   0.80474198   0.82369558   0.8449315    0.86736557
   0.90058959   0.90944629   0.93903069   1.05021265]
nelec by numeric integration = 145.99999360978165
    CPU time for vxc     37.80 sec, wall time     15.70 sec
E1 = -4089.266309651594  Ecoul = 1889.790430359975  Exc = -124.54917144373167
cycle= 14 E= -835.651203460072  delta_E= -3.89e-10  |g|= 1.24e-05  |ddm|= 5.62e-05
    CPU time for cycle= 14     38.27 sec, wall time     15.77 sec
  HOMO = -0.093610496609276  LUMO = -0.0155708358712363
  mo_energy =
[-10.04021584 -10.03203998 -10.02545482 -10.02437559 -10.02334567
 -10.02331877 -10.02279769 -10.01877875 -10.01468256 -10.01282782
 -10.01161839 -10.0105581  -10.00631805 -10.00540821 -10.00351975
 -10.00194444 -10.00154052 -10.00091184  -9.99699042  -9.99635053
  -9.99461871  -9.99117965  -0.85454678  -0.83444553  -0.81467578
  -0.80105346  -0.74100599  -0.73423387  -0.72655053  -0.71066568
  -0.69473055  -0.66568792  -0.62868961  -0.60863046  -0.59448921
  -0.58205614  -0.57479099  -0.55596189  -0.53922853  -0.5288635
  -0.49945927  -0.48162726  -0.4775102   -0.46306246  -0.4589866
  -0.42819985  -0.4213346   -0.41463698  -0.40754767  -0.39673774
  -0.39185293  -0.38317506  -0.36701946  -0.36442879  -0.36237496
  -0.34498312  -0.33278104  -0.32291132  -0.31872866  -0.30479342
  -0.29613842  -0.27100589  -0.26738812  -0.25678153  -0.2426872
  -0.22958879  -0.22401331  -0.21273219  -0.2082208   -0.19915864
  -0.18055409  -0.13956747  -0.0936105   -0.01557084   0.02431973
   0.06368232   0.08150152   0.09858291   0.1174182    0.1257155
   0.18651942   0.24118097   0.24683043   0.25661547   0.26856381
   0.28092031   0.28395951   0.29656688   0.30568103   0.31024025
   0.32799418   0.34892489   0.35031047   0.38137121   0.39175767
   0.41047905   0.4369951    0.44281953   0.44735155   0.46405244
   0.48129174   0.4938276    0.49556066   0.49905245   0.519721
   0.52471334   0.55273796   0.56374036   0.57809493   0.59374377
   0.60732227   0.63344497   0.67329382   0.68062237   0.72319648
   0.72838938   0.8047418    0.82369553   0.84493157   0.86736502
   0.90058992   0.90944628   0.93903114   1.05021165]
nelec by numeric integration = 145.99999360978555
    CPU time for vxc     38.06 sec, wall time     15.75 sec
E1 = -4089.2663285945655  Ecoul = 1889.7904498009523  Exc = -124.54917194178117
cycle= 15 E= -835.651203460116  delta_E= -4.41e-11  |g|= 6.34e-06  |ddm|= 2.57e-05
    CPU time for cycle= 15     38.58 sec, wall time     15.82 sec
  HOMO = -0.0936103699765204  LUMO = -0.0155701854626746
  mo_energy =
[-10.04021584 -10.03204107 -10.02545485 -10.02437629 -10.02334613
 -10.02331806 -10.02279739 -10.01877891 -10.01468324 -10.01282793
 -10.01161999 -10.01055934 -10.00631775 -10.00540801 -10.00351971
 -10.00193966 -10.00154117 -10.00091408  -9.99699046  -9.99634872
  -9.99461995  -9.99117679  -0.85454682  -0.83444577  -0.81467592
  -0.80105365  -0.74100579  -0.73423411  -0.72655084  -0.7106654
  -0.69473044  -0.66568781  -0.62868922  -0.60863022  -0.59448924
  -0.58205622  -0.57479053  -0.55596217  -0.53922864  -0.52886334
  -0.49945939  -0.48162718  -0.47751001  -0.46306266  -0.45898654
  -0.42819992  -0.42133478  -0.41463689  -0.40754788  -0.39673758
  -0.39185272  -0.3831749   -0.3670195   -0.36442879  -0.36237503
  -0.34498331  -0.33278082  -0.32291125  -0.31872883  -0.30479321
  -0.29613852  -0.27100606  -0.26738809  -0.25678162  -0.24268725
  -0.2295886   -0.22401336  -0.21273193  -0.20822121  -0.19915845
  -0.18055417  -0.13956705  -0.09361037  -0.01557019   0.02432007
   0.06368214   0.08150168   0.09858238   0.11741849   0.12571543
   0.1865194    0.24118081   0.24683057   0.25661564   0.26856424
   0.28092071   0.28395963   0.29656661   0.30568071   0.31023998
   0.32799397   0.34892491   0.35030999   0.38137155   0.3917576
   0.41047859   0.43699536   0.44281923   0.44735172   0.46405233
   0.48129193   0.49382783   0.49556041   0.49905265   0.51972162
   0.52471334   0.55273803   0.56374089   0.57809497   0.59374428
   0.60732244   0.63344502   0.67329353   0.68062285   0.72319634
   0.72838921   0.80474174   0.82369549   0.8449311    0.86736498
   0.90058972   0.90944622   0.9390305    1.05021164]
nelec by numeric integration = 145.99999360978342
    CPU time for vxc     38.17 sec, wall time     15.83 sec
E1 = -4089.2663496000614  Ecoul = 1889.7904710130765  Exc = -124.54917214830445
Extra cycle  E= -835.651203460011  delta_E= 1.05e-10  |g|= 1.76e-05  |ddm|= 3.52e-05
    CPU time for scf_cycle    664.33 sec, wall time    272.98 sec
    CPU time for SCF    664.33 sec, wall time    272.98 sec
converged SCF energy = -835.651203460011
nelec by numeric integration = 145.99999360978342
    CPU time for vxc     38.53 sec, wall time     15.94 sec
 ** Mulliken pop  **
pop of  0 C 1s            1.99142
pop of  0 C 2s            1.19424
pop of  0 C 2px           0.98405
pop of  0 C 2py           0.90302
pop of  0 C 2pz           0.91484
pop of  1 C 1s            1.99050
pop of  1 C 2s            1.12442
pop of  1 C 2px           0.98717
pop of  1 C 2py           0.93864
pop of  1 C 2pz           0.94741
pop of  2 C 1s            1.99093
pop of  2 C 2s            1.15713
pop of  2 C 2px           0.98470
pop of  2 C 2py           0.95049
pop of  2 C 2pz           0.97715
pop of  3 C 1s            1.99235
pop of  3 C 2s            1.31490
pop of  3 C 2px           0.87566
pop of  3 C 2py           0.95306
pop of  3 C 2pz           0.93987
pop of  4 C 1s            1.99083
pop of  4 C 2s            1.10861
pop of  4 C 2px           1.01696
pop of  4 C 2py           0.97036
pop of  4 C 2pz           0.99461
pop of  5 C 1s            1.99089
pop of  5 C 2s            1.03857
pop of  5 C 2px           1.07544
pop of  5 C 2py           0.99630
pop of  5 C 2pz           1.08731
pop of  6 C 1s            1.99113
pop of  6 C 2s            1.15131
pop of  6 C 2px           0.99450
pop of  6 C 2py           0.98979
pop of  6 C 2pz           0.94038
pop of  7 C 1s            1.99107
pop of  7 C 2s            1.11765
pop of  7 C 2px           1.02267
pop of  7 C 2py           1.04227
pop of  7 C 2pz           0.96433
pop of  8 C 1s            1.99197
pop of  8 C 2s            1.27080
pop of  8 C 2px           0.95405
pop of  8 C 2py           0.88426
pop of  8 C 2pz           0.87086
pop of  9 C 1s            1.99116
pop of  9 C 2s            1.06040
pop of  9 C 2px           0.99265
pop of  9 C 2py           0.99460
pop of  9 C 2pz           0.95851
pop of  10 C 1s           1.99098
pop of  10 C 2s           1.13470
pop of  10 C 2px          1.02948
pop of  10 C 2py          0.95033
pop of  10 C 2pz          0.98903
pop of  11 C 1s           1.99102
pop of  11 C 2s           1.17508
pop of  11 C 2px          0.98496
pop of  11 C 2py          0.92445
pop of  11 C 2pz          0.99095
pop of  12 C 1s           1.99073
pop of  12 C 2s           1.07612
pop of  12 C 2px          0.99891
pop of  12 C 2py          0.96261
pop of  12 C 2pz          0.98071
pop of  13 C 1s           1.99037
pop of  13 C 2s           1.09115
pop of  13 C 2px          1.02093
pop of  13 C 2py          0.96173
pop of  13 C 2pz          0.96444
pop of  14 C 1s           1.99130
pop of  14 C 2s           1.15783
pop of  14 C 2px          0.98860
pop of  14 C 2py          0.94368
pop of  14 C 2pz          0.97305
pop of  15 C 1s           1.99100
pop of  15 C 2s           1.18050
pop of  15 C 2px          0.97874
pop of  15 C 2py          0.94456
pop of  15 C 2pz          0.97538
pop of  16 C 1s           1.99055
pop of  16 C 2s           1.07327
pop of  16 C 2px          1.02177
pop of  16 C 2py          0.98760
pop of  16 C 2pz          0.96464
pop of  17 C 1s           1.99123
pop of  17 C 2s           1.21325
pop of  17 C 2px          0.96595
pop of  17 C 2py          0.92471
pop of  17 C 2pz          0.89751
pop of  18 C 1s           1.99073
pop of  18 C 2s           1.07311
pop of  18 C 2px          0.99620
pop of  18 C 2py          0.99528
pop of  18 C 2pz          1.01722
pop of  19 C 1s           1.99116
pop of  19 C 2s           1.17878
pop of  19 C 2px          1.02936
pop of  19 C 2py          0.93496
pop of  19 C 2pz          0.99585
pop of  20 C 1s           1.99099
pop of  20 C 2s           1.14371
pop of  20 C 2px          1.01715
pop of  20 C 2py          1.00070
pop of  20 C 2pz          0.92809
pop of  21 C 1s           1.99181
pop of  21 C 2s           1.27391
pop of  21 C 2px          0.92369
pop of  21 C 2py          0.92712
pop of  21 C 2pz          0.92121
pop of  22 H 1s           0.92093
pop of  23 H 1s           0.91051
pop of  24 H 1s           0.93177
pop of  25 H 1s           0.86259
pop of  26 H 1s           0.92959
pop of  27 H 1s           0.88016
pop of  28 H 1s           0.89342
pop of  29 H 1s           0.91606
pop of  30 H 1s           0.92060
pop of  31 H 1s           0.92406
pop of  32 H 1s           0.92953
pop of  33 H 1s           0.89524
pop of  34 H 1s           0.90185
pop of  35 H 1s           0.95267
 ** Mulliken atomic charges  **
charge of    0C =      0.01242
charge of    1C =      0.01186
charge of    2C =     -0.06039
charge of    3C =     -0.07584
charge of    4C =     -0.08138
charge of    5C =     -0.18851
charge of    6C =     -0.06711
charge of    7C =     -0.13800
charge of    8C =      0.02806
charge of    9C =      0.00268
charge of   10C =     -0.09453
charge of   11C =     -0.06645
charge of   12C =     -0.00909
charge of   13C =     -0.02860
charge of   14C =     -0.05446
charge of   15C =     -0.07018
charge of   16C =     -0.03783
charge of   17C =      0.00735
charge of   18C =     -0.07253
charge of   19C =     -0.13010
charge of   20C =     -0.08064
charge of   21C =     -0.03773
charge of   22H =      0.07907
charge of   23H =      0.08949
charge of   24H =      0.06823
charge of   25H =      0.13741
charge of   26H =      0.07041
charge of   27H =      0.11984
charge of   28H =      0.10658
charge of   29H =      0.08394
charge of   30H =      0.07940
charge of   31H =      0.07594
charge of   32H =      0.07047
charge of   33H =      0.10476
charge of   34H =      0.09815
charge of   35H =      0.04733
Dipole moment(X, Y, Z, Debye):  0.24181,  0.17588,  1.07817
nelec by numeric integration = 145.99999360978342
    CPU time for vxc     37.51 sec, wall time     15.69 sec
E1 = -4089.2663496000614  Ecoul = 1889.790471013076  Exc = -124.54917214830445
nelec by numeric integration = 145.99999360978342
    CPU time for vxc     37.66 sec, wall time     15.69 sec
E1 = -4089.2663496000614  Ecoul = 1889.7904710130758  Exc = -124.54917214830445
