System: uname_result(system='Linux', node='cosmopc18', release='5.15.0-97-generic', version='#107-Ubuntu SMP Wed Feb 7 13:26:48 UTC 2024', machine='x86_64')  Threads 4
Python 3.11.8 (main, Feb 26 2024, 21:39:34) [GCC 11.2.0]
numpy 1.26.4  scipy 1.11.4
Date: Tue Apr  9 17:24:55 2024
PySCF version 2.3.0
PySCF path  /home/saade/miniconda3/envs/tutorial/lib/python3.11/site-packages/pyscf

[ENV] PYSCFAD_BACKEND torch
[CONFIG] conf_file None
[INPUT] verbose = 5
[INPUT] max_memory = 4000 
[INPUT] num. atoms = 36
[INPUT] num. electrons = 146
[INPUT] charge = 0
[INPUT] spin (= nelec alpha-beta = 2S) = 0
[INPUT] symmetry False subgroup None
[INPUT] Mole.unit = angstrom
[INPUT] Symbol           X                Y                Z      unit          X                Y                Z       unit  Magmom
[INPUT]  1 C      0.004956000000   3.645254000000   0.580660000000 AA    0.009365482673   6.888531714475   1.097288371490 Bohr   0.0
[INPUT]  2 C     -0.069530000000   3.624533000000  -0.666575000000 AA   -0.131392657441   6.849374699448  -1.259644191482 Bohr   0.0
[INPUT]  3 C      0.012120000000   4.964448000000   1.550122000000 AA    0.022903480630   9.381447079645   2.929306039663 Bohr   0.0
[INPUT]  4 C     -0.026439000000   2.352075000000   1.465565000000 AA   -0.049962469007   4.444777574436   2.769516467748 Bohr   0.0
[INPUT]  5 C     -0.131803000000   4.989766000000  -1.179846000000 AA   -0.249071572396   9.429291165667  -2.229585809164 Bohr   0.0
[INPUT]  6 C     -0.105920000000   2.434076000000  -1.487664000000 AA   -0.200159791114   4.599737006377  -2.811277525375 Bohr   0.0
[INPUT]  7 C     -0.024790000000   6.013814000000  -0.796518000000 AA   -0.046846310628  11.364461424075  -1.505200873286 Bohr   0.0
[INPUT]  8 C     -0.046291000000   6.149976000000   0.754521000000 AA   -0.087477312032  11.621770312648   1.425838045233 Bohr   0.0
[INPUT]  9 C      0.010854000000   1.164240000000   0.682350000000 AA    0.020511087356   2.200094743264   1.289454621097 Bohr   0.0
[INPUT] 10 C      0.106778000000   1.160481000000  -0.783037000000 AA    0.201781176129   2.192991262761  -1.479725475401 Bohr   0.0
[INPUT] 11 C      0.069522000000  -0.038661000000   1.312446000000 AA    0.131377539632  -0.073058701702   2.480163493281 Bohr   0.0
[INPUT] 12 C     -0.062302000000  -0.238072000000  -1.492740000000 AA   -0.117733717013  -0.449890877927  -2.820869775183 Bohr   0.0
[INPUT] 13 C      0.108353000000  -1.228774000000   0.923184000000 AA    0.204757494775  -2.322046328986   1.744564922580 Bohr   0.0
[INPUT] 14 C      0.018829000000  -1.186797000000  -0.769645000000 AA    0.035581653199  -2.242721295455  -1.454418263141 Bohr   0.0
[INPUT] 15 C      0.182161000000  -2.348370000000   1.477672000000 AA    0.344234400577  -4.437776139145   2.792395381938 Bohr   0.0
[INPUT] 16 C      0.085143000000  -2.390242000000  -1.356079000000 AA    0.160896951424  -4.516902751433  -2.562617913274 Bohr   0.0
[INPUT] 17 C     -0.123580000000  -3.843501000000   0.738622000000 AA   -0.233532354474  -7.263164249492   1.395793289578 Bohr   0.0
[INPUT] 18 C     -0.004579000000  -3.553193000000  -0.720424000000 AA   -0.008653055924  -6.714561637722  -1.361404053564 Bohr   0.0
[INPUT] 19 C      0.076973000000  -4.793158000000   1.376933000000 AA    0.145457888986  -9.057755891768   2.602026261876 Bohr   0.0
[INPUT] 20 C      0.022639000000  -5.024267000000  -1.429267000000 AA    0.042781509734  -9.494488606690  -2.700923188879 Bohr   0.0
[INPUT] 21 C     -0.014090000000  -6.017273000000   0.672872000000 AA   -0.026626241095 -11.370997986740   1.271543796888 Bohr   0.0
[INPUT] 22 C      0.108045000000  -6.044659000000  -0.614772000000 AA    0.204175459129 -11.422750026387  -1.161750709051 Bohr   0.0
[INPUT] 23 H      0.057816000000   5.015200000000   2.596564000000 AA    0.109256405618   9.477354459919   4.906794824905 Bohr   0.0
[INPUT] 24 H     -0.121948000000   2.557479000000   2.416385000000 AA   -0.230448321438   4.832934879327   4.566305861507 Bohr   0.0
[INPUT] 25 H     -0.187013000000   4.821688000000  -2.349368000000 AA   -0.353403351733   9.111669778102  -4.439662085817 Bohr   0.0
[INPUT] 26 H     -0.118916000000   2.482000000000  -2.545920000000 AA   -0.224718671829   4.690300241170  -4.811091535053 Bohr   0.0
[INPUT] 27 H      0.061223000000   7.056632000000  -1.226840000000 AA    0.115694702524  13.335101841842  -2.318391598661 Bohr   0.0
[INPUT] 28 H      0.021836000000   7.211046000000   1.232254000000 AA    0.041264059656  13.626902011640   2.328622575900 Bohr   0.0
[INPUT] 29 H     -0.013681000000   0.116762000000   2.523643000000 AA   -0.025853343110   0.220648201756   4.768994106176 Bohr   0.0
[INPUT] 30 H      0.043871000000   0.054262000000  -2.453259000000 AA    0.082904174811   0.102540318971  -4.635987622624 Bohr   0.0
[INPUT] 31 H     -0.049089000000  -2.321547000000   2.595969000000 AA   -0.092764765729  -4.387088015306   4.905670437861 Bohr   0.0
[INPUT] 32 H     -0.056940000000  -2.481579000000  -2.502750000000 AA   -0.107601005533  -4.689504666472  -4.729512058255 Bohr   0.0
[INPUT] 33 H      0.074182000000  -5.005826000000   2.496610000000 AA    0.140183663372  -9.459640167227   4.717909139850 Bohr   0.0
[INPUT] 34 H      0.022486000000  -4.913548000000  -2.604963000000 AA    0.042492381637  -9.285260019904  -4.922666634625 Bohr   0.0
[INPUT] 35 H     -0.041113000000  -7.218835000000   1.245136000000 AA   -0.077692310159 -13.641621088425   2.352966027836 Bohr   0.0
[INPUT] 36 H      0.083711000000  -6.908785000000  -1.267143000000 AA    0.158190863613 -13.055711503503  -2.394553230660 Bohr   0.0
[INPUT] ---------------- BASIS SET ---------------- 
[INPUT] l, kappa, [nprim/nctr], expnt,             c_1 c_2 ...
[INPUT] H
[INPUT] 0    0    [3    /1   ]  3.42525091        0.15432897
                                0.62391373        0.53532814
                                0.1688554         0.44463454
[INPUT] C
[INPUT] 0    0    [3    /1   ]  71.616837         0.15432897
                                13.045096         0.53532814
                                3.5305122         0.44463454
[INPUT] 0    0    [3    /1   ]  2.9412494         -0.09996723
                                0.6834831         0.39951283
                                0.2222899         0.70011547
[INPUT] 1    0    [3    /1   ]  2.9412494         0.15591627
                                0.6834831         0.60768372
                                0.2222899         0.39195739

nuclear repulsion = 1498.01369565994
number of shells = 80
number of NR pGTOs = 372
number of NR cGTOs = 124
basis = sto3g
ecp = {}
CPU time:     67734.89
atom C rad-grids = 99, ang-grids = [ 50  50  50  50  50  50  50  50  50  50  50  50  50  50  50  50  50  50
  50  50  50  50  50  50  50  50  50  50  50  50  50  86  86  86  86  86
  86  86  86  86  86  86  86 434 434 434 434 434 434 434 434 434 590 590
 590 590 590 590 590 590 590 590 590 590 590 590 590 590 590 590 590 590
 590 590 590 590 590 590 590 434 434 434 434 434 434 434 434 434 434 434
 434 434 434 434 434 434 434 434 434]
atom H rad-grids = 99, ang-grids = [ 50  50  50  50  50  50  50  50  50  50  50  50  50  50  50  50  50  50
  50  50  50  50  50  50  50  50  50  50  86  86  86  86  86  86  86 434
 434 434 434 434 434 434 434 590 590 590 590 590 590 590 590 590 590 590
 590 590 590 590 590 590 590 590 590 590 590 590 590 590 590 434 434 434
 434 434 434 434 434 434 434 434 434 434 434 434 434 434 434 434 434 434
 434 434 434 434 434 434 434 434 434]
tot_boxes 5440, boxes in each direction [ 8 30 15]
Padding 0 grids
tot grids = 1157832


******** <class 'pyscf.dft.rks.RKS'> ********
method = RKS
initial guess = minao
damping factor = 0
level_shift factor = 0
DIIS = <class 'pyscf.scf.diis.CDIIS'>
diis_start_cycle = 1
diis_space = 8
SCF conv_tol = 1e-10
SCF conv_tol_grad = None
SCF max_cycles = 50
direct_scf = True
direct_scf_tol = 1e-13
chkfile to save SCF result = /home/saade/mlelec/tutorials/tmpabkgide_
max_memory 4000 MB (current use 690 MB)
XC library pyscf.dft.libxc version 6.1.0
    S. Lehtola, C. Steigemann, M. J.T. Oliveira, and M. A.L. Marques.,  SoftwareX 7, 1–5 (2018)
XC functionals = b3lypg
    P. J. Stephens, F. J. Devlin, C. F. Chabalowski, and M. J. Frisch.,  J. Phys. Chem. 98, 11623 (1994)
radial grids: 
    Treutler-Ahlrichs [JCP 102, 346 (1995); DOI:10.1063/1.469408] (M4) radial grids
    
becke partition: Becke, JCP 88, 2547 (1988); DOI:10.1063/1.454033
pruning grids: <function nwchem_prune at 0x7f9db5616ca0>
grids dens level: 3
symmetrized grids: False
atomic radii adjust function: <function treutler_atomic_radii_adjust at 0x7f9db5617380>
User specified grid scheme (99, 590)
small_rho_cutoff = 1e-07
Set gradient conv threshold to 1e-05
Initial guess from minao.
nelec by numeric integration = 145.2693279693625
    CPU time for vxc     37.00 sec, wall time     15.64 sec
E1 = -4095.8069673197797  Ecoul = 1882.3049515199339  Exc = -126.08692654373932
init E= -841.575246683645
cond(S) = 28.895559632285995
    CPU time for initialize scf     46.58 sec, wall time     17.98 sec
  HOMO = -0.199786186393852  LUMO = -0.165294605884306
  mo_energy =
[-1.01499055e+01 -1.01380319e+01 -1.01377598e+01 -1.01371722e+01
 -1.01341642e+01 -1.01324613e+01 -1.01241492e+01 -1.01240114e+01
 -1.01189834e+01 -1.01148483e+01 -1.01140171e+01 -1.01084680e+01
 -1.01014747e+01 -1.00989383e+01 -1.00955089e+01 -1.00912799e+01
 -1.00898169e+01 -1.00878895e+01 -1.00841839e+01 -1.00798295e+01
 -1.00737379e+01 -1.00641275e+01 -1.10013806e+00 -1.07783491e+00
 -1.06194956e+00 -1.00287501e+00 -9.85276143e-01 -9.38098674e-01
 -9.21012417e-01 -8.95321213e-01 -8.75453926e-01 -8.33703229e-01
 -7.99316899e-01 -7.77027284e-01 -7.14050197e-01 -7.01457143e-01
 -6.81480520e-01 -6.67322430e-01 -6.62386214e-01 -6.36400495e-01
 -5.99284846e-01 -5.80887834e-01 -5.76177104e-01 -5.62051954e-01
 -5.37891250e-01 -5.23645175e-01 -5.06508978e-01 -5.01021224e-01
 -4.92041165e-01 -4.91290473e-01 -4.80788042e-01 -4.76574684e-01
 -4.61563167e-01 -4.58043941e-01 -4.55868956e-01 -4.41618445e-01
 -4.37066468e-01 -4.22825272e-01 -4.06061780e-01 -4.03345684e-01
 -3.87011141e-01 -3.81395905e-01 -3.73023501e-01 -3.47033155e-01
 -3.43194720e-01 -3.35003352e-01 -3.21731855e-01 -3.11995732e-01
 -3.03291015e-01 -2.85577770e-01 -2.85270096e-01 -2.49146788e-01
 -1.99786186e-01 -1.65294606e-01 -9.10464703e-02 -4.77762030e-02
 -3.96399693e-02 -2.43432749e-02  3.61130495e-03  2.82365967e-02
  3.97041415e-02  5.81046510e-02  9.63287473e-02  1.08488261e-01
  1.22641929e-01  1.36119916e-01  1.49385307e-01  1.59261234e-01
  1.69841371e-01  1.80165370e-01  1.98913763e-01  2.08728537e-01
  2.21861946e-01  2.33940812e-01  2.49031456e-01  2.69563339e-01
  2.81027661e-01  2.86924452e-01  2.92425512e-01  3.11815684e-01
  3.13878813e-01  3.28896861e-01  3.71231997e-01  3.75778760e-01
  3.89534045e-01  4.10195181e-01  4.20234754e-01  4.33862245e-01
  4.54244580e-01  4.85424041e-01  4.93812076e-01  4.99908646e-01
  5.31628361e-01  5.49102582e-01  6.05391600e-01  6.18721079e-01
  6.38284470e-01  6.95151983e-01  7.04445936e-01  7.37986584e-01
  7.77459390e-01  8.50241582e-01  9.01831654e-01  1.00901864e+00]
nelec by numeric integration = 145.9999941971611
    CPU time for vxc     37.62 sec, wall time     15.63 sec
E1 = -4112.4769892627555  Ecoul = 1903.6358240847946  Exc = -124.77214251343437
cycle= 1 E= -835.599612031455  delta_E= 5.98  |g|= 0.353  |ddm|= 9.31
    CPU time for cycle= 1     37.94 sec, wall time     15.68 sec
  HOMO = -0.0775389503884509  LUMO = 0.014126175002305
  mo_energy =
[-10.09924471 -10.09159195 -10.02308381 -10.02126768 -10.02102887
  -9.99464891  -9.99346623  -9.98093751  -9.9800044   -9.97891463
  -9.97391261  -9.9707433   -9.96205661  -9.96152914  -9.96065098
  -9.95569182  -9.94701989  -9.93776861  -9.92618212  -9.92022171
  -9.8708834   -9.85748711  -0.86898261  -0.80066279  -0.78879031
  -0.766572    -0.74710026  -0.71890877  -0.70639057  -0.67740135
  -0.66761139  -0.6521699   -0.63525313  -0.58170741  -0.56771923
  -0.55250603  -0.54063939  -0.52786133  -0.50422234  -0.49255274
  -0.47663226  -0.46806223  -0.44749178  -0.441247    -0.423558
  -0.40970079  -0.39330737  -0.38594638  -0.38064519  -0.3699446
  -0.36682212  -0.35683511  -0.34903379  -0.34283109  -0.33497796
  -0.31936543  -0.31527367  -0.30550979  -0.29812605  -0.27800192
  -0.2649139   -0.26202935  -0.2509146   -0.23141719  -0.21767932
  -0.21063663  -0.19944184  -0.19438339  -0.17191236  -0.16477136
  -0.15268794  -0.12901041  -0.07753895   0.01412618   0.06655422
   0.10977846   0.11585885   0.13299752   0.16431766   0.17260919
   0.22006682   0.22707434   0.24365443   0.2658306    0.28181522
   0.28474264   0.3014847    0.30453444   0.31505482   0.34583523
   0.36686217   0.37698548   0.38985592   0.40197268   0.41104336
   0.41343764   0.41915631   0.42737867   0.4654358    0.46843366
   0.47149925   0.5134956    0.51720904   0.53809136   0.54924739
   0.56888466   0.59674029   0.60445009   0.61463173   0.62080794
   0.6679123    0.67174032   0.68813382   0.73441676   0.74356426
   0.77433012   0.81164184   0.82560732   0.92353725   0.94704496
   1.00603082   1.03682903   1.09698626   1.21828269]
nelec by numeric integration = 145.99999424276177
    CPU time for vxc     38.32 sec, wall time     15.80 sec
E1 = -4103.341934599043  Ecoul = 1894.5706423210975  Exc = -124.63144585299915
cycle= 2 E= -835.389042471005  delta_E= 0.211  |g|= 0.732  |ddm|= 2.13
    CPU time for cycle= 2     38.66 sec, wall time     15.86 sec
  HOMO = -0.0857298202491435  LUMO = -0.0244557411128405
  mo_energy =
[-10.03190857 -10.03147424 -10.02619294 -10.01608545 -10.0145597
 -10.01142862 -10.01102967 -10.00909637 -10.00754207 -10.00344695
  -9.99663483  -9.99555879  -9.99156064  -9.99141005  -9.98953451
  -9.98706506  -9.98529034  -9.97648617  -9.97406745  -9.97029754
  -9.9691772   -9.95860886  -0.8454872   -0.8285254   -0.81839997
  -0.77877929  -0.7734485   -0.73514599  -0.71939977  -0.70990096
  -0.6903287   -0.66390488  -0.64458347  -0.6121883   -0.57895872
  -0.56152755  -0.54945067  -0.53567627  -0.52995177  -0.50423218
  -0.48246858  -0.46542773  -0.46350256  -0.45386599  -0.43326128
  -0.42105229  -0.40722631  -0.39444617  -0.39118503  -0.3889593
  -0.37902465  -0.36729754  -0.36375379  -0.35775155  -0.34882721
  -0.33999738  -0.32648668  -0.31978956  -0.31056186  -0.29518581
  -0.28593195  -0.27799858  -0.27211551  -0.25884925  -0.24149571
  -0.23131101  -0.22386859  -0.20724866  -0.20145144  -0.18962314
  -0.18087955  -0.14737399  -0.08572982  -0.02445574   0.0498313
   0.09633755   0.10531906   0.12493143   0.16020895   0.17833998
   0.19174347   0.2167961    0.23244837   0.24904955   0.26950458
   0.27840406   0.29364955   0.31873717   0.32307824   0.33587655
   0.34286086   0.34894279   0.35892556   0.37847347   0.39092337
   0.40360337   0.40786488   0.42236116   0.43145382   0.45416312
   0.45525048   0.47592154   0.51356095   0.52109585   0.53174723
   0.54324531   0.5611529    0.57925947   0.59436586   0.6191274
   0.63359155   0.65912456   0.68559981   0.70465551   0.76582717
   0.77805972   0.80011274   0.84490055   0.86508981   0.88662233
   0.93136866   1.02126241   1.06763115   1.18585009]
nelec by numeric integration = 145.99999411108317
    CPU time for vxc     38.21 sec, wall time     15.86 sec
E1 = -4108.010097206985  Ecoul = 1899.0168467750705  Exc = -124.62358458408681
cycle= 3 E= -835.603139356062  delta_E= -0.214  |g|= 0.332  |ddm|= 2.16
    CPU time for cycle= 3     38.58 sec, wall time     15.92 sec
  HOMO = -0.0916240504506324  LUMO = -0.0361773194720445
  mo_energy =
[-10.03753072 -10.03533798 -10.03026415 -10.02722156 -10.02623827
 -10.02585145 -10.02531579 -10.02008269 -10.01934187 -10.01849927
 -10.0176977  -10.01512996 -10.01416422 -10.01345636 -10.00620161
 -10.00474263 -10.00333036 -10.0020382   -9.99686071  -9.99062728
  -9.98945615  -9.98686759  -0.85790787  -0.84399259  -0.83654822
  -0.79069593  -0.77689039  -0.7515885   -0.73957902  -0.7131674
  -0.69936377  -0.66935602  -0.64065419  -0.63329518  -0.58278028
  -0.56951445  -0.55392742  -0.54538285  -0.53979785  -0.51998478
  -0.49054849  -0.47655941  -0.46924105  -0.46290288  -0.43908648
  -0.42540019  -0.41239007  -0.40808011  -0.39999282  -0.39445696
  -0.383493    -0.37372126  -0.37262808  -0.36925344  -0.35438507
  -0.34758288  -0.34148022  -0.3309245   -0.31493563  -0.30913039
  -0.30202791  -0.29316545  -0.2771441   -0.26064371  -0.24970325
  -0.24574508  -0.23102904  -0.21999822  -0.20358695  -0.20266871
  -0.19304404  -0.1533108   -0.09162405  -0.03617732   0.04457967
   0.09082519   0.09692426   0.11359515   0.14157753   0.17003037
   0.1835687    0.20131487   0.22184762   0.24095322   0.2572274
   0.27632077   0.27927821   0.30357718   0.31707701   0.31980509
   0.34192515   0.34253137   0.35536909   0.37216916   0.375827
   0.4017379    0.40598103   0.4296361    0.43072114   0.43653211
   0.44901594   0.46568516   0.5078116    0.51133388   0.52087106
   0.54242046   0.56298449   0.56999027   0.59252093   0.62161045
   0.63081612   0.63378369   0.67329638   0.69157993   0.7450623
   0.76236238   0.772041     0.83174708   0.85794849   0.88241084
   0.92788224   0.99765693   1.04425205   1.16387911]
nelec by numeric integration = 145.99999418790244
    CPU time for vxc     37.99 sec, wall time     15.68 sec
E1 = -4108.089276692489  Ecoul = 1899.074336212341  Exc = -124.65050941359289
cycle= 4 E= -835.651754233801  delta_E= -0.0486  |g|= 0.102  |ddm|= 0.912
    CPU time for cycle= 4     38.53 sec, wall time     15.76 sec
  HOMO = -0.0946753970121761  LUMO = -0.0375098951865248
  mo_energy =
[-10.0327663  -10.02932497 -10.02908304 -10.02871362 -10.02691051
 -10.02651003 -10.02643135 -10.02071004 -10.01936834 -10.01750012
 -10.01729763 -10.01684559 -10.01668933 -10.01482532 -10.0146759
 -10.01256409 -10.01051293 -10.00189383 -10.00001686  -9.99769172
  -9.99663688  -9.99620983  -0.85575693  -0.84624611  -0.8347333
  -0.78903025  -0.7777047   -0.7537149   -0.73784856  -0.71685715
  -0.70172215  -0.67213429  -0.64500114  -0.63401068  -0.58457582
  -0.57094751  -0.55657494  -0.54421177  -0.53992584  -0.51962971
  -0.49094683  -0.47454586  -0.47054624  -0.46050708  -0.44168864
  -0.42799999  -0.41638919  -0.40707186  -0.40099012  -0.3956046
  -0.38642481  -0.37499822  -0.37078313  -0.36705553  -0.35728358
  -0.35169526  -0.34224109  -0.33049714  -0.31807238  -0.30987892
  -0.29857938  -0.28928999  -0.2800723   -0.26531131  -0.2520354
  -0.24722792  -0.23522893  -0.22012388  -0.20797282  -0.20183811
  -0.19425173  -0.1579296   -0.0946754   -0.0375099    0.04063536
   0.09090813   0.09287352   0.11083128   0.13988734   0.17316124
   0.18144051   0.20594804   0.22326679   0.24006148   0.25540389
   0.27117522   0.27976169   0.30305047   0.31653856   0.32115705
   0.33824023   0.34023321   0.34806631   0.37395505   0.3779162
   0.39827827   0.40476172   0.42092285   0.43051022   0.43642007
   0.44919864   0.46759917   0.50680714   0.51094821   0.52124966
   0.53910833   0.56192744   0.56906558   0.58681244   0.6162712
   0.62715785   0.63084538   0.68073738   0.68487885   0.75234075
   0.76002929   0.77100525   0.83070606   0.85314056   0.87680582
   0.93045268   1.00552667   1.04771756   1.16292386]
nelec by numeric integration = 145.9999941636152
    CPU time for vxc     38.57 sec, wall time     15.95 sec
E1 = -4108.194046738968  Ecoul = 1899.1768197016875  Exc = -124.65167822457867
cycle= 5 E= -835.655209601919  delta_E= -0.00346  |g|= 0.0512  |ddm|= 0.271
    CPU time for cycle= 5     38.96 sec, wall time     16.01 sec
  HOMO = -0.0944080590224628  LUMO = -0.0350536477331609
  mo_energy =
[-10.03141548 -10.02843886 -10.02737385 -10.02658847 -10.02603009
 -10.0236763  -10.02332612 -10.01855286 -10.01735131 -10.01683484
 -10.01635392 -10.01569155 -10.01504722 -10.01106094 -10.00987112
 -10.00805442 -10.00766223 -10.00531716 -10.00199051  -9.9997092
  -9.99869909  -9.9975162   -0.85461775  -0.84439657  -0.83431635
  -0.78930253  -0.77818896  -0.75055517  -0.73740782  -0.71582804
  -0.7014678   -0.6722675   -0.64314492  -0.63226446  -0.5842485
  -0.57036869  -0.55530422  -0.54334516  -0.54052581  -0.51842702
  -0.48996395  -0.47485183  -0.46983098  -0.46153807  -0.44038394
  -0.42653026  -0.41464022  -0.40693559  -0.39960587  -0.39630255
  -0.38477424  -0.37498142  -0.37107954  -0.36786204  -0.35581678
  -0.34993624  -0.34104777  -0.33019018  -0.31772147  -0.30808401
  -0.29938327  -0.29067014  -0.27954995  -0.2643317   -0.24886395
  -0.24692035  -0.23397693  -0.21982727  -0.20702192  -0.20175542
  -0.19410829  -0.15786479  -0.09440806  -0.03505365   0.04109911
   0.0914236    0.09335453   0.11153027   0.14222666   0.17243944
   0.18228496   0.20512277   0.22417269   0.24035243   0.25736052
   0.27259817   0.28112904   0.30387906   0.31662339   0.32194062
   0.33961797   0.3427094    0.35054518   0.37261795   0.37856166
   0.39888298   0.40416566   0.42348035   0.42937685   0.43917514
   0.44752022   0.46670751   0.50612273   0.5108333    0.52086233
   0.53956964   0.56402029   0.56754227   0.58789064   0.61746576
   0.62794521   0.63453217   0.67951781   0.6866842    0.75299688
   0.75983052   0.77404684   0.83396529   0.85448329   0.87860248
   0.92968169   1.00342543   1.04802513   1.16517273]
nelec by numeric integration = 145.9999941660386
    CPU time for vxc     38.35 sec, wall time     15.79 sec
E1 = -4108.173555353691  Ecoul = 1899.1521840335508  Exc = -124.64845149441018
cycle= 6 E= -835.656127154611  delta_E= -0.000918  |g|= 0.0176  |ddm|= 0.105
    CPU time for cycle= 6     38.91 sec, wall time     15.87 sec
  HOMO = -0.0944766921298584  LUMO = -0.0348334625316372
  mo_energy =
[-10.03194799 -10.02749663 -10.02711207 -10.02625928 -10.0259357
 -10.02426003 -10.0227831  -10.01985219 -10.01745427 -10.01707071
 -10.01486324 -10.01174205 -10.01119967 -10.01078245 -10.01046114
 -10.0072916  -10.00724729 -10.00639849 -10.00437265  -9.99789724
  -9.9978395   -9.99633863  -0.85461645  -0.84405474  -0.8341741
  -0.78916535  -0.77750692  -0.75062875  -0.73715694  -0.71546154
  -0.70094431  -0.67131437  -0.64310567  -0.63222679  -0.58342204
  -0.57014346  -0.55499539  -0.54327512  -0.54015355  -0.51838035
  -0.49000469  -0.47447496  -0.46954185  -0.46115865  -0.44017288
  -0.4263354   -0.41438479  -0.40687171  -0.39953641  -0.39537024
  -0.38470735  -0.37445426  -0.37081949  -0.36770527  -0.35545795
  -0.34990782  -0.34097683  -0.32992152  -0.3168317   -0.30828129
  -0.2993132   -0.29046019  -0.27883776  -0.26393592  -0.24898429
  -0.24657676  -0.23365815  -0.2193997   -0.20639924  -0.20157512
  -0.19384132  -0.15684267  -0.09447669  -0.03483346   0.04218107
   0.09161549   0.09396838   0.1120842    0.14218251   0.17264839
   0.1828561    0.20505015   0.22389013   0.24085546   0.25737223
   0.27289022   0.28107642   0.30424825   0.31707973   0.32203869
   0.33990989   0.34262282   0.3504647    0.37327248   0.37853381
   0.39939671   0.40468102   0.42393675   0.43026942   0.43876989
   0.44878468   0.46727334   0.50749704   0.51145642   0.52137986
   0.54008397   0.56432947   0.56789098   0.5883938    0.61792342
   0.62881186   0.63419272   0.67950507   0.68703088   0.75267102
   0.76047425   0.77351211   0.83371792   0.85484353   0.87902453
   0.92993513   1.0035349    1.04788945   1.16547958]
nelec by numeric integration = 145.99999416827174
    CPU time for vxc     37.85 sec, wall time     15.68 sec
E1 = -4108.133684872317  Ecoul = 1899.1116904746996  Exc = -124.64792297631632
cycle= 7 E= -835.656221713994  delta_E= -9.46e-05  |g|= 0.00711  |ddm|= 0.0312
    CPU time for cycle= 7     38.34 sec, wall time     15.76 sec
  HOMO = -0.0944859673581559  LUMO = -0.0347699777432525
  mo_energy =
[-10.03199058 -10.02774095 -10.02736729 -10.02634903 -10.02587784
 -10.02387908 -10.02318571 -10.01971351 -10.01783976 -10.01728477
 -10.01442498 -10.01190874 -10.01164988 -10.01107695 -10.01063967
 -10.00737612 -10.00698067 -10.00541001 -10.00344825  -9.99838767
  -9.99704281  -9.99602513  -0.85459023  -0.8441543   -0.83423594
  -0.78902952  -0.77763089  -0.75072989  -0.73712377  -0.71534309
  -0.70078147  -0.67120205  -0.64309542  -0.63219022  -0.58339716
  -0.57002626  -0.55505445  -0.54321014  -0.54009556  -0.51839262
  -0.48993507  -0.47446338  -0.46958117  -0.46111467  -0.44018568
  -0.42628195  -0.41431873  -0.40677337  -0.39962658  -0.39540692
  -0.38468149  -0.37438154  -0.37079252  -0.36763871  -0.35554027
  -0.34983999  -0.3410096   -0.32988365  -0.31685318  -0.30825467
  -0.29919823  -0.29028588  -0.27894343  -0.26384521  -0.24905769
  -0.24657803  -0.23366193  -0.21930543  -0.20632511  -0.20153961
  -0.19363714  -0.15671277  -0.09448597  -0.03476998   0.04230242
   0.0917505    0.09408614   0.11219124   0.14213098   0.17264284
   0.1827582    0.2052041    0.22390803   0.24068433   0.2573332
   0.27309729   0.28108493   0.30415989   0.31713187   0.32213941
   0.3399867    0.3426348    0.35053501   0.37339846   0.37858036
   0.3994669    0.40473576   0.42415201   0.43021415   0.43872137
   0.44872881   0.46718494   0.50747335   0.51140007   0.52136425
   0.54019685   0.56437661   0.56796895   0.58858712   0.61806033
   0.62887227   0.63418179   0.67983839   0.6870822    0.75289191
   0.76050572   0.77353139   0.8337251    0.85462568   0.87901409
   0.92985031   1.00364235   1.04788131   1.16507451]
nelec by numeric integration = 145.99999416719754
    CPU time for vxc     38.11 sec, wall time     15.76 sec
E1 = -4108.136583069732  Ecoul = 1899.1145669481452  Exc = -124.64791599999663
cycle= 8 E= -835.656236461644  delta_E= -1.47e-05  |g|= 0.00391  |ddm|= 0.00864
    CPU time for cycle= 8     38.50 sec, wall time     15.82 sec
  HOMO = -0.094553516667061  LUMO = -0.034784078449851
  mo_energy =
[-10.03190182 -10.02763183 -10.02739344 -10.02630648 -10.02612232
 -10.02401457 -10.02324896 -10.0192752  -10.01783078 -10.01726242
 -10.01453723 -10.01209404 -10.01202629 -10.01089391 -10.01084763
 -10.00720348 -10.00719717 -10.00549222 -10.00389404  -9.99857547
  -9.99723766  -9.99591998  -0.85459669  -0.84416235  -0.83426505
  -0.78915127  -0.77771864  -0.75066218  -0.73715724  -0.71545779
  -0.70085357  -0.67128228  -0.64320933  -0.6321325   -0.58347859
  -0.57011744  -0.55507579  -0.54320209  -0.54020134  -0.51836921
  -0.48999157  -0.4744976   -0.46961366  -0.46118338  -0.44023712
  -0.42633135  -0.41437101  -0.40677751  -0.3996181   -0.39546544
  -0.38473733  -0.37441954  -0.37084449  -0.36766817  -0.3555517
  -0.34986842  -0.34100672  -0.32992728  -0.31693532  -0.30817169
  -0.29922836  -0.29039369  -0.27901812  -0.26390884  -0.24897616
  -0.24664709  -0.23369731  -0.21936817  -0.20641869  -0.20155922
  -0.19368873  -0.15681656  -0.09455352  -0.03478408   0.04218235
   0.09165693   0.09405018   0.11212334   0.14217385   0.17259336
   0.18271215   0.20513301   0.22399587   0.24069796   0.25735859
   0.27302048   0.28111149   0.30415378   0.31703475   0.3221439
   0.33988946   0.34268154   0.3504649    0.37329708   0.37861067
   0.39940058   0.404715     0.42395167   0.43013611   0.43883348
   0.44863995   0.46713285   0.50739002   0.51136009   0.52131041
   0.54009559   0.56422954   0.56789068   0.588538     0.61792395
   0.62873304   0.63430244   0.67978427   0.68694955   0.7529015
   0.76041025   0.77365565   0.83381857   0.85451518   0.87898009
   0.92974299   1.00354969   1.0478852    1.16506532]
nelec by numeric integration = 145.99999416706987
    CPU time for vxc     37.97 sec, wall time     15.72 sec
E1 = -4108.147479837636  Ecoul = 1899.125473882909  Exc = -124.6479317932694
cycle= 9 E= -835.656242088056  delta_E= -5.63e-06  |g|= 0.00164  |ddm|= 0.00514
    CPU time for cycle= 9     38.58 sec, wall time     15.81 sec
  HOMO = -0.0945794743370592  LUMO = -0.0348013285829792
  mo_energy =
[-10.03191246 -10.0277367  -10.02751442 -10.02630359 -10.0261419
 -10.0239902  -10.02323941 -10.0193487  -10.01779406 -10.01738864
 -10.01450846 -10.01214899 -10.01194981 -10.01085022 -10.01083513
 -10.00709232 -10.00705377 -10.00548296 -10.00397672  -9.99873883
  -9.99729209  -9.99614521  -0.85459984  -0.84418595  -0.83427785
  -0.78915957  -0.7777575   -0.75065265  -0.73715235  -0.715489
  -0.70087756  -0.6713095   -0.64326394  -0.63211939  -0.58348565
  -0.57012316  -0.55510942  -0.54320013  -0.54021498  -0.51836178
  -0.49000057  -0.47450652  -0.4696329   -0.46117898  -0.4402566
  -0.4263339   -0.41437751  -0.40676409  -0.39963596  -0.39548849
  -0.38476051  -0.37445421  -0.37086233  -0.36767594  -0.35558533
  -0.34991708  -0.34102064  -0.32992542  -0.31693783  -0.30815819
  -0.29920935  -0.29038876  -0.2790465   -0.26396121  -0.24896147
  -0.2466603   -0.23373858  -0.21937009  -0.20647104  -0.20155844
  -0.19371144  -0.15683945  -0.09457947  -0.03480133   0.04216939
   0.09164205   0.09399637   0.11211143   0.14217563   0.1725707
   0.18268456   0.20513523   0.2239998    0.24066997   0.25735544
   0.27296541   0.28111856   0.30412652   0.31702778   0.32215801
   0.33986549   0.34271874   0.3504244    0.37329749   0.37861999
   0.39935778   0.40467167   0.4239229    0.43011805   0.43885255
   0.4486449    0.4671203    0.50737714   0.51135969   0.52131681
   0.54007051   0.56418909   0.56790341   0.58846089   0.6178914
   0.62872996   0.63431414   0.67980466   0.68690677   0.75292682
   0.76037426   0.77366808   0.83385314   0.85444361   0.87890247
   0.9296925    1.00356914   1.04787782   1.16506414]
nelec by numeric integration = 145.99999416690295
    CPU time for vxc     38.04 sec, wall time     15.75 sec
E1 = -4108.150407200887  Ecoul = 1899.12843947257  Exc = -124.64797107192608
cycle= 10 E= -835.656243140303  delta_E= -1.05e-06  |g|= 0.000663  |ddm|= 0.00245
    CPU time for cycle= 10     38.44 sec, wall time     15.81 sec
  HOMO = -0.0945779015836053  LUMO = -0.0348055595670033
  mo_energy =
[-10.0318743  -10.0277705  -10.02757326 -10.0262371  -10.02621095
 -10.02399208 -10.02319385 -10.01925419 -10.01776876 -10.01738495
 -10.01443893 -10.01225707 -10.01201557 -10.0108515  -10.01077206
 -10.00710406 -10.00701827 -10.00543623 -10.00396394  -9.99878486
  -9.99732288  -9.9960994   -0.85458628  -0.84417663  -0.83427608
  -0.78916991  -0.77778078  -0.75062702  -0.73714138  -0.71549901
  -0.7008749   -0.67131188  -0.64328584  -0.63209314  -0.58349333
  -0.57012633  -0.55511008  -0.54317791  -0.54023115  -0.5183467
  -0.48999876  -0.47449857  -0.46963533  -0.46117805  -0.44025462
  -0.42633351  -0.41437793  -0.40675331  -0.39962969  -0.3954978
  -0.38476195  -0.37445516  -0.37086602  -0.3676696   -0.35557834
  -0.34991469  -0.34101073  -0.3299228   -0.31695313  -0.30814073
  -0.29920323  -0.29039426  -0.27905695  -0.26396351  -0.24893307
  -0.2466783   -0.23373767  -0.21936452  -0.20648223  -0.20155259
  -0.19370193  -0.15683946  -0.0945779   -0.03480556   0.04216555
   0.09163959   0.09399962   0.11211387   0.14219832   0.17255834
   0.18268066   0.20513616   0.22401201   0.24067901   0.25736457
   0.27295526   0.28113623   0.30413637   0.3170112    0.32217795
   0.33984535   0.34273438   0.35040725   0.37329031   0.3786439
   0.39936899   0.40468382   0.42390042   0.43010099   0.43888944
   0.4486334    0.46711062   0.50736836   0.51136112   0.52132068
   0.54006504   0.564157     0.56790559   0.58846723   0.61787247
   0.62871386   0.63435685   0.67983463   0.68688999   0.75295466
   0.76036391   0.77371167   0.83389011   0.85439212   0.87888874
   0.9296559    1.00356786   1.04790223   1.16508854]
nelec by numeric integration = 145.99999416673242
    CPU time for vxc     38.33 sec, wall time     15.76 sec
E1 = -4108.152674952733  Ecoul = 1899.1306750497988  Exc = -124.64793907769706
cycle= 11 E= -835.656243320691  delta_E= -1.8e-07  |g|= 0.00021  |ddm|= 0.00171
    CPU time for cycle= 11     38.70 sec, wall time     15.82 sec
  HOMO = -0.0945718568918715  LUMO = -0.0347969780233666
  mo_energy =
[-10.03188341 -10.02773098 -10.02754286 -10.02625305 -10.02618173
 -10.02397852 -10.0232068  -10.01924523 -10.01777391 -10.01735892
 -10.01446288 -10.01222098 -10.01199647 -10.01084128 -10.01077805
 -10.00708899 -10.00700833 -10.0054224  -10.00397327  -9.99878277
  -9.99728093  -9.99609336  -0.85458243  -0.84416884  -0.83426732
  -0.78915929  -0.77776872  -0.75062602  -0.73713694  -0.71548965
  -0.70086418  -0.67130134  -0.64327529  -0.63209011  -0.58348351
  -0.57011931  -0.55510236  -0.54317917  -0.54022054  -0.51834407
  -0.48999376  -0.47449468  -0.46962949  -0.46117354  -0.44025003
  -0.42632956  -0.41437126  -0.40674871  -0.3996271   -0.39548876
  -0.38475502  -0.3744454   -0.37085872  -0.36766717  -0.35557146
  -0.34990805  -0.34100609  -0.32991808  -0.31694417  -0.30813981
  -0.29919887  -0.29038494  -0.27904843  -0.26395323  -0.24893297
  -0.24666884  -0.23373034  -0.21935751  -0.20647043  -0.2015501
  -0.19369311  -0.15683013  -0.09457186  -0.03479698   0.04217376
   0.09164684   0.09401063   0.11212297   0.14219978   0.17256678
   0.18268709   0.20514425   0.22401329   0.2406806    0.25736783
   0.27297689   0.28113614   0.30414265   0.31702245   0.32217905
   0.33985626   0.34273456   0.35041594   0.37329791   0.37863957
   0.39937178   0.40468429   0.42391291   0.43010719   0.43888466
   0.44864009   0.46711705   0.50737968   0.51136618   0.5213247
   0.54007511   0.56417181   0.56790965   0.58847785   0.61788664
   0.62872493   0.63435523   0.67983539   0.68690189   0.75296031
   0.76037725   0.7737119    0.83389041   0.85441122   0.87891107
   0.92967327   1.00357583   1.04790011   1.16508468]
nelec by numeric integration = 145.99999416675794
    CPU time for vxc     38.02 sec, wall time     15.73 sec
E1 = -4108.151642547011  Ecoul = 1899.1296287809123  Exc = -124.64792522989781
cycle= 12 E= -835.656243336056  delta_E= -1.54e-08  |g|= 8.2e-05  |ddm|= 0.000298
    CPU time for cycle= 12     38.43 sec, wall time     15.80 sec
  HOMO = -0.0945700253540732  LUMO = -0.0347965448756219
  mo_energy =
[-10.03187577 -10.02773154 -10.02753799 -10.02625486 -10.02617921
 -10.02397838 -10.02320785 -10.0192546  -10.01777465 -10.01736746
 -10.01446108 -10.01221487 -10.01199544 -10.0108492  -10.01078178
 -10.00708569 -10.00701077 -10.00542549 -10.00396858  -9.99877314
  -9.99728689  -9.99608775  -0.8545816   -0.84416991  -0.83426703
  -0.78915836  -0.77776645  -0.75062691  -0.73713687  -0.71548878
  -0.70086571  -0.67130196  -0.64327253  -0.63209216  -0.58348425
  -0.57011866  -0.55510245  -0.54317925  -0.5402193   -0.51834469
  -0.48999333  -0.47449512  -0.46962912  -0.46117323  -0.44024992
  -0.42632923  -0.41437256  -0.40674966  -0.39962631  -0.39548836
  -0.38475483  -0.37444639  -0.37085744  -0.36766643  -0.35557213
  -0.3499077   -0.34100602  -0.32991757  -0.31694344  -0.30814136
  -0.29919892  -0.29038398  -0.27904745  -0.26395398  -0.24893396
  -0.24666676  -0.23373031  -0.2193582   -0.20646976  -0.20154852
  -0.19369375  -0.15683083  -0.09457003  -0.03479654   0.04217272
   0.09164786   0.09401064   0.11212201   0.1421994    0.17256904
   0.18268801   0.20514477   0.22401209   0.24068075   0.25736802
   0.27297251   0.28113655   0.304142     0.31702383   0.32217894
   0.33985791   0.34273344   0.35041748   0.37329886   0.37864041
   0.39937173   0.40468505   0.42391344   0.43010897   0.43888217
   0.44863958   0.46711844   0.50737758   0.51136571   0.52132427
   0.54007446   0.56417393   0.56791063   0.58847793   0.61788676
   0.62872542   0.63435269   0.679835     0.68690271   0.75295844
   0.76037693   0.77370913   0.83388852   0.85441586   0.87890827
   0.92967714   1.0035777    1.0479023    1.16508416]
nelec by numeric integration = 145.99999416676562
    CPU time for vxc     37.84 sec, wall time     15.66 sec
E1 = -4108.1514905301  Ecoul = 1899.1294782805846  Exc = -124.64792674904581
cycle= 13 E= -835.656243338622  delta_E= -2.57e-09  |g|= 2.56e-05  |ddm|= 0.000141
    CPU time for cycle= 13     38.22 sec, wall time     15.72 sec
  HOMO = -0.0945710936441298  LUMO = -0.0347975933077986
  mo_energy =
[-10.03187947 -10.02773263 -10.02754069 -10.02625523 -10.02618063
 -10.02398124 -10.0232081  -10.01925415 -10.01777502 -10.01736466
 -10.01446268 -10.01221592 -10.01199679 -10.01084603 -10.01078229
 -10.00708996 -10.00701436 -10.00542918 -10.00396814  -9.99877453
  -9.99728586  -9.99609193  -0.85458317  -0.84417031  -0.83426825
  -0.78915969  -0.7777675   -0.75062787  -0.73713815  -0.71548932
  -0.70086601  -0.67130254  -0.64327325  -0.63209305  -0.58348442
  -0.57011964  -0.55510279  -0.54318029  -0.54022032  -0.51834559
  -0.48999404  -0.47449574  -0.46962961  -0.46117412  -0.44025038
  -0.42632977  -0.41437241  -0.40675067  -0.39962709  -0.39548891
  -0.38475533  -0.37444646  -0.37085865  -0.36766746  -0.35557234
  -0.34990801  -0.34100691  -0.32991866  -0.31694408  -0.30814185
  -0.29920018  -0.29038561  -0.27904809  -0.26395392  -0.24893495
  -0.24666787  -0.23373054  -0.21935897  -0.20647021  -0.20155004
  -0.19369465  -0.15683113  -0.09457109  -0.03479759   0.04217253
   0.09164671   0.09400975   0.11212146   0.14219845   0.17256753
   0.18268729   0.2051432    0.2240117    0.24068043   0.25736714
   0.27297372   0.28113529   0.3041415    0.31702262   0.3221775
   0.33985717   0.34273243   0.35041728   0.37329755   0.3786391
   0.39937125   0.40468422   0.42391347   0.43010844   0.43888192
   0.4486395    0.46711765   0.50737812   0.51136527   0.52132374
   0.54007433   0.56417337   0.56790916   0.58847728   0.61788649
   0.6287247    0.63435197   0.67983301   0.68690246   0.75295668
   0.76037652   0.77370829   0.83388713   0.85441463   0.87890895
   0.92967514   1.00357536   1.04790045   1.16508382]
nelec by numeric integration = 145.99999416676857
    CPU time for vxc     38.08 sec, wall time     15.72 sec
E1 = -4108.151575764221  Ecoul = 1899.1295656715158  Exc = -124.64792890606358
cycle= 14 E= -835.656243338829  delta_E= -2.07e-10  |g|= 7.8e-06  |ddm|= 3.55e-05
    CPU time for cycle= 14     38.67 sec, wall time     15.81 sec
  HOMO = -0.0945711456402449  LUMO = -0.0347976581372278
  mo_energy =
[-10.03188057 -10.02773335 -10.02754033 -10.02625543 -10.02618032
 -10.02398005 -10.02320725 -10.01925477 -10.01777422 -10.01736412
 -10.01446336 -10.01221503 -10.01199717 -10.01084709 -10.0107826
 -10.00709009 -10.00701507 -10.00542837 -10.00396814  -9.99877481
  -9.9972868   -9.996092    -0.85458327  -0.84417035  -0.83426809
  -0.78915937  -0.77776738  -0.75062811  -0.73713821  -0.71548938
  -0.70086613  -0.6713027   -0.64327316  -0.63209326  -0.5834846
  -0.57011963  -0.55510278  -0.54318045  -0.54022018  -0.51834571
  -0.48999402  -0.47449568  -0.46962963  -0.46117407  -0.44025028
  -0.42632989  -0.41437255  -0.4067507   -0.39962713  -0.39548892
  -0.38475529  -0.37444661  -0.37085864  -0.36766748  -0.35557235
  -0.34990803  -0.34100695  -0.32991871  -0.31694424  -0.308142
  -0.29920018  -0.29038543  -0.27904805  -0.26395386  -0.24893524
  -0.24666785  -0.23373049  -0.21935902  -0.20647033  -0.20155017
  -0.19369475  -0.15683131  -0.09457115  -0.03479766   0.04217232
   0.0916467    0.09400958   0.1121213    0.14219822   0.17256762
   0.18268727   0.20514344   0.22401162   0.24068062   0.257367
   0.27297352   0.28113511   0.30414154   0.31702268   0.32217733
   0.33985722   0.34273226   0.35041733   0.37329761   0.37863881
   0.39937141   0.40468441   0.42391343   0.43010833   0.43888171
   0.44863934   0.46711759   0.5073779    0.51136513   0.52132373
   0.54007424   0.56417344   0.56790915   0.58847722   0.61788642
   0.62872466   0.63435163   0.679833     0.68690249   0.75295681
   0.76037651   0.77370803   0.83388687   0.85441486   0.87890889
   0.92967545   1.00357549   1.04790018   1.16508437]
nelec by numeric integration = 145.9999941667691
    CPU time for vxc     38.38 sec, wall time     15.82 sec
E1 = -4108.151564381782  Ecoul = 1899.1295542698888  Exc = -124.64792888689193
cycle= 15 E= -835.656243338845  delta_E= -1.64e-11  |g|= 4.81e-06  |ddm|= 1.04e-05
    CPU time for cycle= 15     38.77 sec, wall time     15.88 sec
  HOMO = -0.0945709764159972  LUMO = -0.0347974751235116
  mo_energy =
[-10.0318799  -10.02773229 -10.02753914 -10.02625583 -10.02617957
 -10.02398134 -10.02320793 -10.01925668 -10.01777498 -10.0173644
 -10.01446319 -10.01221388 -10.01199565 -10.01084515 -10.01078416
 -10.00709042 -10.0070167  -10.00543048 -10.00396769  -9.99877148
  -9.99728558  -9.9960913   -0.85458338  -0.84417032  -0.83426819
  -0.78915944  -0.77776672  -0.75062848  -0.73713831  -0.71548894
  -0.70086589  -0.67130224  -0.64327249  -0.63209378  -0.5834842
  -0.57011948  -0.55510253  -0.54318059  -0.54021988  -0.51834595
  -0.48999401  -0.47449569  -0.46962941  -0.461174    -0.44025017
  -0.42632976  -0.41437239  -0.40675102  -0.39962706  -0.39548851
  -0.38475515  -0.37444623  -0.37085843  -0.36766745  -0.35557219
  -0.34990778  -0.341007    -0.32991867  -0.31694374  -0.30814254
  -0.29920048  -0.29038552  -0.27904756  -0.26395353  -0.24893566
  -0.24666751  -0.23373026  -0.21935899  -0.20646966  -0.20155007
  -0.19369466  -0.15683081  -0.09457098  -0.03479748   0.04217277
   0.09164687   0.09401      0.11212152   0.14219797   0.17256793
   0.18268769   0.20514313   0.22401115   0.24068067   0.2573669
   0.272974     0.28113491   0.30414159   0.31702295   0.32217708
   0.33985761   0.34273182   0.35041767   0.37329782   0.37863872
   0.39937163   0.40468456   0.4239141    0.43010901   0.43888101
   0.44863987   0.46711802   0.50737849   0.51136536   0.5213238
   0.54007471   0.56417413   0.5679092    0.58847768   0.61788703
   0.62872513   0.63435093   0.6798324    0.68690306   0.75295585
   0.76037697   0.7737071    0.83388602   0.85441591   0.87890934
   0.9296761    1.00357531   1.04790023   1.165084  ]
nelec by numeric integration = 145.99999416677213
    CPU time for vxc     37.82 sec, wall time     15.68 sec
E1 = -4108.151505937254  Ecoul = 1899.1294960038217  Exc = -124.6479290652268
Extra cycle  E= -835.656243338719  delta_E= 1.26e-10  |g|= 1.69e-05  |ddm|= 4.4e-05
    CPU time for scf_cycle    663.13 sec, wall time    271.07 sec
    CPU time for SCF    663.13 sec, wall time    271.07 sec
converged SCF energy = -835.656243338719
nelec by numeric integration = 145.99999416677213
    CPU time for vxc     37.95 sec, wall time     15.69 sec
 ** Mulliken pop  **
pop of  0 C 1s            1.99133
pop of  0 C 2s            1.15018
pop of  0 C 2px           0.97162
pop of  0 C 2py           0.91663
pop of  0 C 2pz           0.95726
pop of  1 C 1s            1.99039
pop of  1 C 2s            1.08380
pop of  1 C 2px           1.02407
pop of  1 C 2py           0.94197
pop of  1 C 2pz           0.98660
pop of  2 C 1s            1.99123
pop of  2 C 2s            1.20697
pop of  2 C 2px           1.01698
pop of  2 C 2py           0.92235
pop of  2 C 2pz           0.96070
pop of  3 C 1s            1.99115
pop of  3 C 2s            1.17649
pop of  3 C 2px           0.98477
pop of  3 C 2py           0.93932
pop of  3 C 2pz           0.99364
pop of  4 C 1s            1.99159
pop of  4 C 2s            1.04996
pop of  4 C 2px           1.00324
pop of  4 C 2py           1.01769
pop of  4 C 2pz           1.01167
pop of  5 C 1s            1.99090
pop of  5 C 2s            1.17981
pop of  5 C 2px           1.00394
pop of  5 C 2py           0.92949
pop of  5 C 2pz           0.97392
pop of  6 C 1s            1.99161
pop of  6 C 2s            1.07734
pop of  6 C 2px           1.01405
pop of  6 C 2py           1.05086
pop of  6 C 2pz           0.96905
pop of  7 C 1s            1.99137
pop of  7 C 2s            1.22323
pop of  7 C 2px           0.96726
pop of  7 C 2py           0.94712
pop of  7 C 2pz           0.92079
pop of  8 C 1s            1.99048
pop of  8 C 2s            1.12066
pop of  8 C 2px           0.99925
pop of  8 C 2py           0.95019
pop of  8 C 2pz           0.95012
pop of  9 C 1s            1.99121
pop of  9 C 2s            1.20581
pop of  9 C 2px           0.95550
pop of  9 C 2py           0.91839
pop of  9 C 2pz           0.91514
pop of  10 C 1s           1.99096
pop of  10 C 2s           1.09968
pop of  10 C 2px          0.99031
pop of  10 C 2py          0.98131
pop of  10 C 2pz          0.98374
pop of  11 C 1s           1.99123
pop of  11 C 2s           1.09113
pop of  11 C 2px          1.03209
pop of  11 C 2py          0.96186
pop of  11 C 2pz          1.03163
pop of  12 C 1s           1.99104
pop of  12 C 2s           1.05566
pop of  12 C 2px          1.03114
pop of  12 C 2py          1.02510
pop of  12 C 2pz          0.92230
pop of  13 C 1s           1.99096
pop of  13 C 2s           1.09218
pop of  13 C 2px          0.97341
pop of  13 C 2py          0.99347
pop of  13 C 2pz          0.97023
pop of  14 C 1s           1.99149
pop of  14 C 2s           1.19915
pop of  14 C 2px          0.96155
pop of  14 C 2py          0.94891
pop of  14 C 2pz          0.96248
pop of  15 C 1s           1.99069
pop of  15 C 2s           1.12150
pop of  15 C 2px          1.01870
pop of  15 C 2py          0.95768
pop of  15 C 2pz          0.98417
pop of  16 C 1s           1.99152
pop of  16 C 2s           1.10824
pop of  16 C 2px          0.98945
pop of  16 C 2py          0.94696
pop of  16 C 2pz          0.96683
pop of  17 C 1s           1.99113
pop of  17 C 2s           1.15843
pop of  17 C 2px          0.97842
pop of  17 C 2py          0.94845
pop of  17 C 2pz          0.91298
pop of  18 C 1s           1.99093
pop of  18 C 2s           1.08308
pop of  18 C 2px          1.01481
pop of  18 C 2py          0.99055
pop of  18 C 2pz          1.02580
pop of  19 C 1s           1.99150
pop of  19 C 2s           1.19813
pop of  19 C 2px          0.96043
pop of  19 C 2py          0.93037
pop of  19 C 2pz          0.95700
pop of  20 C 1s           1.99114
pop of  20 C 2s           1.16094
pop of  20 C 2px          0.97329
pop of  20 C 2py          0.93434
pop of  20 C 2pz          0.96109
pop of  21 C 1s           1.99052
pop of  21 C 2s           1.08421
pop of  21 C 2px          1.03259
pop of  21 C 2py          1.02005
pop of  21 C 2pz          0.99778
pop of  22 H 1s           0.90936
pop of  23 H 1s           0.89680
pop of  24 H 1s           0.93504
pop of  25 H 1s           0.91391
pop of  26 H 1s           0.90409
pop of  27 H 1s           0.93976
pop of  28 H 1s           0.95093
pop of  29 H 1s           0.88803
pop of  30 H 1s           0.93000
pop of  31 H 1s           0.92857
pop of  32 H 1s           0.90126
pop of  33 H 1s           0.92906
pop of  34 H 1s           0.95048
pop of  35 H 1s           0.90689
 ** Mulliken atomic charges  **
charge of    0C =      0.01298
charge of    1C =     -0.02684
charge of    2C =     -0.09823
charge of    3C =     -0.08538
charge of    4C =     -0.07414
charge of    5C =     -0.07805
charge of    6C =     -0.10291
charge of    7C =     -0.04976
charge of    8C =     -0.01072
charge of    9C =      0.01395
charge of   10C =     -0.04599
charge of   11C =     -0.10793
charge of   12C =     -0.02524
charge of   13C =     -0.02025
charge of   14C =     -0.06358
charge of   15C =     -0.07274
charge of   16C =     -0.00299
charge of   17C =      0.01058
charge of   18C =     -0.10517
charge of   19C =     -0.03744
charge of   20C =     -0.02080
charge of   21C =     -0.12515
charge of   22H =      0.09064
charge of   23H =      0.10320
charge of   24H =      0.06496
charge of   25H =      0.08609
charge of   26H =      0.09591
charge of   27H =      0.06024
charge of   28H =      0.04907
charge of   29H =      0.11197
charge of   30H =      0.07000
charge of   31H =      0.07143
charge of   32H =      0.09874
charge of   33H =      0.07094
charge of   34H =      0.04952
charge of   35H =      0.09311
Dipole moment(X, Y, Z, Debye): -0.14537, -0.19766, -0.13727
nelec by numeric integration = 145.99999416677213
    CPU time for vxc     37.79 sec, wall time     15.76 sec
E1 = -4108.151505937254  Ecoul = 1899.1294960038226  Exc = -124.6479290652268
nelec by numeric integration = 145.99999416677213
    CPU time for vxc     37.52 sec, wall time     15.71 sec
E1 = -4108.151505937254  Ecoul = 1899.1294960038226  Exc = -124.6479290652268
