System: uname_result(system='Linux', node='cosmopc18', release='5.15.0-97-generic', version='#107-Ubuntu SMP Wed Feb 7 13:26:48 UTC 2024', machine='x86_64')  Threads 4
Python 3.11.8 (main, Feb 26 2024, 21:39:34) [GCC 11.2.0]
numpy 1.26.4  scipy 1.11.4
Date: Tue Apr  9 16:54:27 2024
PySCF version 2.3.0
PySCF path  /home/saade/miniconda3/envs/tutorial/lib/python3.11/site-packages/pyscf

[ENV] PYSCFAD_BACKEND torch
[CONFIG] conf_file None
[INPUT] verbose = 5
[INPUT] max_memory = 4000 
[INPUT] num. atoms = 36
[INPUT] num. electrons = 146
[INPUT] charge = 0
[INPUT] spin (= nelec alpha-beta = 2S) = 0
[INPUT] symmetry False subgroup None
[INPUT] Mole.unit = angstrom
[INPUT] Symbol           X                Y                Z      unit          X                Y                Z       unit  Magmom
[INPUT]  1 C     -0.079309000000   3.734120000000   0.738298000000 AA   -0.149872289213   7.056464116261   1.395181018314 Bohr   0.0
[INPUT]  2 C      0.022340000000   3.621381000000  -0.712368000000 AA    0.042216481623   6.843418282704  -1.346180419904 Bohr   0.0
[INPUT]  3 C      0.147493000000   4.766923000000   1.512080000000 AA    0.278721375290   9.008178926890   2.857417078432 Bohr   0.0
[INPUT]  4 C     -0.077429000000   2.382779000000   1.379371000000 AA   -0.146319604099   4.502799725365   2.606633414167 Bohr   0.0
[INPUT]  5 C     -0.102421000000   4.979711000000  -1.533916000000 AA   -0.193547639404   9.410289969484  -2.898681138088 Bohr   0.0
[INPUT]  6 C     -0.025899000000   2.524233000000  -1.437959000000 AA   -0.048942016900   4.770109044589  -2.717348688353 Bohr   0.0
[INPUT]  7 C      0.000998000000   6.121607000000  -0.730577000000 AA    0.001885946672  11.568160672220  -1.380590442906 Bohr   0.0
[INPUT]  8 C      0.009141000000   6.127562000000   0.768563000000 AA    0.017273986505  11.579413991292   1.452373579474 Bohr   0.0
[INPUT]  9 C     -0.081965000000   1.205856000000   0.722873000000 AA   -0.154891401800   2.278737585664   1.366031992843 Bohr   0.0
[INPUT] 10 C     -0.033459000000   1.221069000000  -0.746116000000 AA   -0.063228346402   2.307485989197  -1.409954897156 Bohr   0.0
[INPUT] 11 C     -0.101343000000   0.220686000000   1.553420000000 AA   -0.191510514642   0.417036099526   2.935538356422 Bohr   0.0
[INPUT] 12 C      0.099744000000   0.017584000000  -1.424996000000 AA    0.188488842569   0.033228944174  -2.692852168601 Bohr   0.0
[INPUT] 13 C      0.084408000000  -1.201905000000   0.810662000000 AA    0.159508002722  -2.271271277745   1.531929159592 Bohr   0.0
[INPUT] 14 C     -0.010997000000  -1.083859000000  -0.809246000000 AA   -0.020781318192  -2.048196667645  -1.529253307400 Bohr   0.0
[INPUT] 15 C      0.094884000000  -2.461793000000   1.398898000000 AA    0.179304773603  -4.652114545371   2.643534096202 Bohr   0.0
[INPUT] 16 C      0.031376000000  -2.509789000000  -1.385999000000 AA    0.059292046884  -4.742813840446  -2.619158518921 Bohr   0.0
[INPUT] 17 C      0.168171000000  -3.857069000000   0.549170000000 AA    0.317797132094  -7.288804053550   1.037780895827 Bohr   0.0
[INPUT] 18 C     -0.056368000000  -3.651022000000  -0.821220000000 AA   -0.106520082189  -6.899431654762  -1.551880888015 Bohr   0.0
[INPUT] 19 C     -0.133000000000  -4.722725000000   1.527247000000 AA   -0.251333574567  -8.924656811637   2.886078554564 Bohr   0.0
[INPUT] 20 C      0.046382000000  -4.960671000000  -1.464773000000 AA    0.087649277110  -9.374309584072  -2.768019804658 Bohr   0.0
[INPUT] 21 C      0.022672000000  -6.175204000000   0.810115000000 AA    0.042843870696 -11.669444323319   1.530895479402 Bohr   0.0
[INPUT] 22 C      0.120695000000  -6.135883000000  -0.890150000000 AA    0.228080494604 -11.595138402375  -1.682139709782 Bohr   0.0
[INPUT] 23 H     -0.086594000000   4.931042000000   2.385608000000 AA   -0.163638944031   9.318318888728   4.508145760571 Bohr   0.0
[INPUT] 24 H     -0.001943000000   2.349642000000   2.536640000000 AA   -0.003671737860   4.440179870775   4.793554876617 Bohr   0.0
[INPUT] 25 H      0.066375000000   4.901851000000  -2.414891000000 AA    0.125430571518   9.263155893425  -4.563482610677 Bohr   0.0
[INPUT] 26 H      0.015070000000   2.367720000000  -2.482667000000 AA    0.028478172697   4.474342339655  -4.691560688496 Bohr   0.0
[INPUT] 27 H      0.206142000000   6.997054000000  -1.115570000000 AA    0.389551922770  13.222515738792  -2.108121772781 Bohr   0.0
[INPUT] 28 H      0.072052000000   6.929113000000   1.267972000000 AA    0.136158546727  13.094125856163   2.396119813617 Bohr   0.0
[INPUT] 29 H      0.132856000000   0.171469000000   2.352472000000 AA    0.251061454005   0.324029448853   4.445527795708 Bohr   0.0
[INPUT] 30 H      0.034056000000  -0.123202000000  -2.471269000000 AA    0.064356512898  -0.232818037999  -4.670021590128 Bohr   0.0
[INPUT] 31 H      0.186877000000  -2.607969000000   2.458255000000 AA    0.353146348980  -4.928347151356   4.645428694343 Bohr   0.0
[INPUT] 32 H     -0.034651000000  -2.460515000000  -2.520837000000 AA   -0.065480899942  -4.649699475384  -4.763691534670 Bohr   0.0
[INPUT] 33 H     -0.073027000000  -4.986767000000   2.411939000000 AA   -0.138001029699  -9.423623877019   4.557904139157 Bohr   0.0
[INPUT] 34 H     -0.076492000000  -4.926996000000  -2.560802000000 AA   -0.144548930720  -9.310673056828  -4.839214439238 Bohr   0.0
[INPUT] 35 H     -0.103094000000  -7.007567000000   1.323533000000 AA   -0.194819425086 -13.242382429540   2.501114886824 Bohr   0.0
[INPUT] 36 H     -0.029785000000  -7.153619000000  -1.232976000000 AA   -0.056285492620 -13.518380709485  -2.329986958162 Bohr   0.0
[INPUT] ---------------- BASIS SET ---------------- 
[INPUT] l, kappa, [nprim/nctr], expnt,             c_1 c_2 ...
[INPUT] H
[INPUT] 0    0    [3    /1   ]  3.42525091        0.15432897
                                0.62391373        0.53532814
                                0.1688554         0.44463454
[INPUT] C
[INPUT] 0    0    [3    /1   ]  71.616837         0.15432897
                                13.045096         0.53532814
                                3.5305122         0.44463454
[INPUT] 0    0    [3    /1   ]  2.9412494         -0.09996723
                                0.6834831         0.39951283
                                0.2222899         0.70011547
[INPUT] 1    0    [3    /1   ]  2.9412494         0.15591627
                                0.6834831         0.60768372
                                0.2222899         0.39195739

nuclear repulsion = 1482.70965367398
number of shells = 80
number of NR pGTOs = 372
number of NR cGTOs = 124
basis = sto3g
ecp = {}
CPU time:     63273.52
atom C rad-grids = 99, ang-grids = [ 50  50  50  50  50  50  50  50  50  50  50  50  50  50  50  50  50  50
  50  50  50  50  50  50  50  50  50  50  50  50  50  86  86  86  86  86
  86  86  86  86  86  86  86 434 434 434 434 434 434 434 434 434 590 590
 590 590 590 590 590 590 590 590 590 590 590 590 590 590 590 590 590 590
 590 590 590 590 590 590 590 434 434 434 434 434 434 434 434 434 434 434
 434 434 434 434 434 434 434 434 434]
atom H rad-grids = 99, ang-grids = [ 50  50  50  50  50  50  50  50  50  50  50  50  50  50  50  50  50  50
  50  50  50  50  50  50  50  50  50  50  86  86  86  86  86  86  86 434
 434 434 434 434 434 434 434 590 590 590 590 590 590 590 590 590 590 590
 590 590 590 590 590 590 590 590 590 590 590 590 590 590 590 434 434 434
 434 434 434 434 434 434 434 434 434 434 434 434 434 434 434 434 434 434
 434 434 434 434 434 434 434 434 434]
tot_boxes 5270, boxes in each direction [ 8 29 15]
Padding 0 grids
tot grids = 1157832


******** <class 'pyscf.dft.rks.RKS'> ********
method = RKS
initial guess = minao
damping factor = 0
level_shift factor = 0
DIIS = <class 'pyscf.scf.diis.CDIIS'>
diis_start_cycle = 1
diis_space = 8
SCF conv_tol = 1e-10
SCF conv_tol_grad = None
SCF max_cycles = 50
direct_scf = True
direct_scf_tol = 1e-13
chkfile to save SCF result = /home/saade/mlelec/tutorials/tmp28oh27yl
max_memory 4000 MB (current use 690 MB)
XC library pyscf.dft.libxc version 6.1.0
    S. Lehtola, C. Steigemann, M. J.T. Oliveira, and M. A.L. Marques.,  SoftwareX 7, 1–5 (2018)
XC functionals = b3lypg
    P. J. Stephens, F. J. Devlin, C. F. Chabalowski, and M. J. Frisch.,  J. Phys. Chem. 98, 11623 (1994)
radial grids: 
    Treutler-Ahlrichs [JCP 102, 346 (1995); DOI:10.1063/1.469408] (M4) radial grids
    
becke partition: Becke, JCP 88, 2547 (1988); DOI:10.1063/1.454033
pruning grids: <function nwchem_prune at 0x7f9db5616ca0>
grids dens level: 3
symmetrized grids: False
atomic radii adjust function: <function treutler_atomic_radii_adjust at 0x7f9db5617380>
User specified grid scheme (99, 590)
small_rho_cutoff = 1e-07
Set gradient conv threshold to 1e-05
Initial guess from minao.
nelec by numeric integration = 145.2596589928617
    CPU time for vxc     37.47 sec, wall time     15.64 sec
E1 = -4065.3733373374744  Ecoul = 1867.6824277541189  Exc = -125.96249437161843
init E= -840.94375028099
cond(S) = 18.15133307407112
    CPU time for initialize scf     47.38 sec, wall time     18.01 sec
  HOMO = -0.197195284169999  LUMO = -0.157578337658525
  mo_energy =
[-1.01397668e+01 -1.01286837e+01 -1.01283595e+01 -1.01185794e+01
 -1.01111756e+01 -1.01079538e+01 -1.01045984e+01 -1.01044439e+01
 -1.01035288e+01 -1.01034007e+01 -1.00999274e+01 -1.00981898e+01
 -1.00975094e+01 -1.00972994e+01 -1.00970769e+01 -1.00953011e+01
 -1.00881945e+01 -1.00873884e+01 -1.00802404e+01 -1.00787414e+01
 -1.00786319e+01 -1.00592025e+01 -1.08623253e+00 -1.04859825e+00
 -1.01631875e+00 -9.80933601e-01 -9.44150816e-01 -9.23402369e-01
 -9.10175372e-01 -9.01818523e-01 -8.55128866e-01 -8.27523978e-01
 -7.92594033e-01 -7.65796505e-01 -7.32778627e-01 -7.07429498e-01
 -7.01102026e-01 -6.85455468e-01 -6.59282734e-01 -6.57335834e-01
 -6.12159993e-01 -5.92841719e-01 -5.77943088e-01 -5.72535852e-01
 -5.50607727e-01 -5.47908624e-01 -5.28111304e-01 -5.11522991e-01
 -5.02045937e-01 -4.89658234e-01 -4.72309829e-01 -4.65896936e-01
 -4.64643819e-01 -4.43936717e-01 -4.42742477e-01 -4.35738060e-01
 -4.27074964e-01 -4.20028405e-01 -4.11599934e-01 -4.01327548e-01
 -3.95941882e-01 -3.74755787e-01 -3.63966462e-01 -3.42703806e-01
 -3.40707952e-01 -3.30095160e-01 -3.25263390e-01 -3.06272570e-01
 -2.96551345e-01 -2.84692334e-01 -2.76852940e-01 -2.28326661e-01
 -1.97195284e-01 -1.57578338e-01 -1.18729049e-01 -6.35140991e-02
 -4.87024332e-02 -3.13176761e-02 -2.32880701e-02  3.83030334e-03
  1.95336393e-02  7.26460195e-02  1.04635496e-01  1.12359114e-01
  1.26154051e-01  1.48106020e-01  1.52263414e-01  1.67368008e-01
  1.78815624e-01  1.95426574e-01  1.99216271e-01  2.32441668e-01
  2.49858731e-01  2.57775439e-01  2.85810224e-01  2.89476216e-01
  3.00903288e-01  3.09145794e-01  3.35959060e-01  3.46193196e-01
  3.55429221e-01  3.70239597e-01  3.96952703e-01  4.13119239e-01
  4.29155043e-01  4.53727016e-01  4.57467952e-01  4.64520600e-01
  4.79723433e-01  4.89237304e-01  5.03978614e-01  5.43806180e-01
  5.45594631e-01  5.54479272e-01  5.94982866e-01  6.10785788e-01
  6.25730748e-01  6.59134348e-01  6.77303035e-01  6.95537645e-01
  7.24172051e-01  7.39168595e-01  7.63393114e-01  7.82877676e-01]
nelec by numeric integration = 145.9999961881833
    CPU time for vxc     38.33 sec, wall time     15.85 sec
E1 = -4081.365284555073  Ecoul = 1887.6380064875466  Exc = -124.64518805457072
cycle= 1 E= -835.662812448113  delta_E= 5.28  |g|= 0.355  |ddm|= 9.21
    CPU time for cycle= 1     38.72 sec, wall time     15.91 sec
  HOMO = -0.0771701316979637  LUMO = 0.00839580926181763
  mo_energy =
[-1.01331289e+01 -1.00617297e+01 -1.00556246e+01 -1.00406924e+01
 -1.00325803e+01 -1.00241648e+01 -1.00036631e+01 -1.00000794e+01
 -9.99741031e+00 -9.99368614e+00 -9.98852862e+00 -9.98152089e+00
 -9.97687474e+00 -9.97462560e+00 -9.95348253e+00 -9.94365379e+00
 -9.94258996e+00 -9.93455831e+00 -9.93301758e+00 -9.88866896e+00
 -9.87134525e+00 -9.83128199e+00 -8.38605365e-01 -7.89650942e-01
 -7.73034436e-01 -7.57558187e-01 -7.46624511e-01 -7.21993638e-01
 -7.11881059e-01 -6.90489004e-01 -6.75340678e-01 -6.51603699e-01
 -6.30294321e-01 -6.01802631e-01 -5.87386723e-01 -5.70930536e-01
 -5.67883158e-01 -5.35300577e-01 -5.24738212e-01 -5.10159068e-01
 -4.97305902e-01 -4.78555447e-01 -4.61508197e-01 -4.57620811e-01
 -4.41426179e-01 -4.22910627e-01 -4.16231805e-01 -4.00724704e-01
 -3.82965405e-01 -3.75599185e-01 -3.57001696e-01 -3.56346189e-01
 -3.51316588e-01 -3.44922371e-01 -3.36141630e-01 -3.22146471e-01
 -3.18427700e-01 -3.03019702e-01 -2.87981200e-01 -2.79212277e-01
 -2.71006876e-01 -2.55128437e-01 -2.47315167e-01 -2.44391107e-01
 -2.31658611e-01 -2.17847331e-01 -2.02503867e-01 -1.97607501e-01
 -1.76171039e-01 -1.61585736e-01 -1.36581867e-01 -1.22940134e-01
 -7.71701317e-02  8.39580926e-03  3.51256769e-02  6.57954349e-02
  7.84356331e-02  1.19603804e-01  1.46084329e-01  1.84974283e-01
  1.93711366e-01  2.10149558e-01  2.39254457e-01  2.47172256e-01
  2.85488876e-01  3.04480369e-01  3.27302212e-01  3.41944561e-01
  3.60677648e-01  3.62661303e-01  3.74553194e-01  3.83564601e-01
  3.95310121e-01  4.18367120e-01  4.25476294e-01  4.36806468e-01
  4.52534693e-01  4.74220373e-01  4.85455236e-01  4.96648911e-01
  5.07442470e-01  5.14363962e-01  5.24586804e-01  5.67142292e-01
  5.80638475e-01  5.99438586e-01  6.10708687e-01  6.23432089e-01
  6.29069132e-01  6.49197812e-01  6.60439024e-01  6.87336760e-01
  6.98667669e-01  7.23895835e-01  7.33855388e-01  7.63787569e-01
  8.06330245e-01  8.33142429e-01  8.46808667e-01  8.54636983e-01
  8.92327091e-01  9.07265529e-01  9.32624582e-01  1.02765470e+00]
nelec by numeric integration = 145.9999963483883
    CPU time for vxc     38.26 sec, wall time     15.80 sec
E1 = -4072.004560073571  Ecoul = 1878.5579107369845  Exc = -124.56873798420553
cycle= 2 E= -835.305733646808  delta_E= 0.357  |g|= 0.931  |ddm|= 2.31
    CPU time for cycle= 2     38.56 sec, wall time     15.86 sec
  HOMO = -0.0816115838957868  LUMO = -0.0197768670754056
  mo_energy =
[-10.03041939 -10.02690628 -10.02398113 -10.02353736 -10.02100086
 -10.01797301 -10.01254168 -10.0058447   -9.99881773  -9.99813107
  -9.99773887  -9.99762496  -9.99738579  -9.99520795  -9.99441447
  -9.99379233  -9.9909012   -9.98456562  -9.98377082  -9.97992063
  -9.96576397  -9.94124753  -0.84003067  -0.81499973  -0.79269721
  -0.77054624  -0.7429455   -0.73000627  -0.72171556  -0.71583857
  -0.67899911  -0.66293564  -0.63464643  -0.6187294   -0.59517315
  -0.57710352  -0.56798777  -0.56387688  -0.53717118  -0.52982927
  -0.50111601  -0.48590766  -0.47561054  -0.46580679  -0.44655704
  -0.44139862  -0.42730197  -0.41600583  -0.39986175  -0.39117047
  -0.37981121  -0.37001142  -0.35374774  -0.35027486  -0.34370535
  -0.33253094  -0.33083234  -0.32470425  -0.31526232  -0.30317376
  -0.29486693  -0.27439864  -0.26519     -0.24809775  -0.24437584
  -0.22760745  -0.2269506   -0.20655344  -0.19540797  -0.1881468
  -0.17502878  -0.12260046  -0.08161158  -0.01977687   0.01756581
   0.08092769   0.09268782   0.11088298   0.12204386   0.15502873
   0.16680905   0.21991443   0.25278665   0.2583607    0.27300628
   0.30052933   0.30421489   0.31314942   0.33119949   0.3397376
   0.35128144   0.36586528   0.39124879   0.40413434   0.41465383
   0.43116243   0.44308857   0.45773429   0.47812248   0.48557179
   0.49876585   0.50556367   0.53927742   0.55880679   0.56968935
   0.58649559   0.59019459   0.59817506   0.62507449   0.63397758
   0.64009744   0.6690417    0.68022642   0.69560657   0.73488092
   0.75103728   0.76648627   0.79855756   0.82023693   0.84534094
   0.86434581   0.87922039   0.90880621   0.9301371 ]
nelec by numeric integration = 145.99999619493053
    CPU time for vxc     37.91 sec, wall time     15.84 sec
E1 = -4077.9754329969896  Ecoul = 1884.0893601465573  Exc = -124.53169800273044
cycle= 3 E= -835.708117179179  delta_E= -0.402  |g|= 0.177  |ddm|= 2.02
    CPU time for cycle= 3     38.40 sec, wall time     15.92 sec
  HOMO = -0.0947619108916389  LUMO = -0.0305342836016107
  mo_energy =
[-1.00363262e+01 -1.00286281e+01 -1.00272960e+01 -1.00225324e+01
 -1.00204431e+01 -1.00201275e+01 -1.00184409e+01 -1.00166495e+01
 -1.00156719e+01 -1.00154342e+01 -1.00150282e+01 -1.00132125e+01
 -1.00110035e+01 -1.00107246e+01 -1.00069226e+01 -1.00055596e+01
 -1.00032858e+01 -1.00025162e+01 -1.00023643e+01 -9.99682583e+00
 -9.99493282e+00 -9.99152450e+00 -8.42857203e-01 -8.25669743e-01
 -7.98651827e-01 -7.76272552e-01 -7.50336602e-01 -7.40091426e-01
 -7.29405904e-01 -7.24368565e-01 -6.86971718e-01 -6.68060198e-01
 -6.43275944e-01 -6.25753397e-01 -6.01976356e-01 -5.80996188e-01
 -5.74039713e-01 -5.69769049e-01 -5.44089205e-01 -5.35924458e-01
 -5.05581899e-01 -4.90083881e-01 -4.80967646e-01 -4.70825219e-01
 -4.51950935e-01 -4.49851695e-01 -4.34691623e-01 -4.20619129e-01
 -4.06508742e-01 -3.94710626e-01 -3.85769690e-01 -3.76157433e-01
 -3.58609167e-01 -3.56473996e-01 -3.51169719e-01 -3.42539310e-01
 -3.40564265e-01 -3.28582212e-01 -3.21007074e-01 -3.09157899e-01
 -3.00747905e-01 -2.87706608e-01 -2.71756042e-01 -2.57174487e-01
 -2.50687145e-01 -2.37521276e-01 -2.34944734e-01 -2.15550991e-01
 -2.07823435e-01 -1.99957438e-01 -1.83964201e-01 -1.30194191e-01
 -9.47619109e-02 -3.05342836e-02  9.35513576e-03  6.71143180e-02
  8.40668211e-02  1.03379341e-01  1.13077685e-01  1.44704121e-01
  1.61205814e-01  2.12523919e-01  2.41398251e-01  2.43289243e-01
  2.62989053e-01  2.93172722e-01  2.96274087e-01  3.07829260e-01
  3.22585463e-01  3.32215469e-01  3.46397604e-01  3.67633002e-01
  3.80775286e-01  3.99520038e-01  4.09094946e-01  4.25071872e-01
  4.39856841e-01  4.52356138e-01  4.72330038e-01  4.78878820e-01
  4.95048904e-01  5.02184324e-01  5.31931429e-01  5.50876034e-01
  5.65481452e-01  5.69394814e-01  5.87311461e-01  5.93100502e-01
  6.16386243e-01  6.22223063e-01  6.35175532e-01  6.65718665e-01
  6.71732451e-01  6.90709670e-01  7.29648599e-01  7.40191387e-01
  7.62741516e-01  7.93714813e-01  8.15585453e-01  8.35988723e-01
  8.55198922e-01  8.72186265e-01  8.98407234e-01  9.25151886e-01]
nelec by numeric integration = 145.9999962108821
    CPU time for vxc     38.08 sec, wall time     15.76 sec
E1 = -4077.594030370111  Ecoul = 1883.7130511415353  Exc = -124.54746949490853
cycle= 4 E= -835.7187950495  delta_E= -0.0107  |g|= 0.0785  |ddm|=  0.4
    CPU time for cycle= 4     38.54 sec, wall time     15.83 sec
  HOMO = -0.0954147442619105  LUMO = -0.0294173904086849
  mo_energy =
[-1.00377219e+01 -1.00334023e+01 -1.00328931e+01 -1.00298008e+01
 -1.00273133e+01 -1.00260099e+01 -1.00219260e+01 -1.00170182e+01
 -1.00158323e+01 -1.00155267e+01 -1.00152780e+01 -1.00146113e+01
 -1.00119970e+01 -1.00107806e+01 -1.00096526e+01 -1.00092609e+01
 -1.00061666e+01 -1.00042797e+01 -1.00034148e+01 -1.00028724e+01
 -9.99192997e+00 -9.98463381e+00 -8.45646936e-01 -8.26152151e-01
 -8.01713480e-01 -7.77541188e-01 -7.51850116e-01 -7.40338493e-01
 -7.30298647e-01 -7.26390681e-01 -6.87293225e-01 -6.70628507e-01
 -6.42716173e-01 -6.26846226e-01 -6.03442063e-01 -5.82466504e-01
 -5.73789079e-01 -5.70607950e-01 -5.44595457e-01 -5.36626539e-01
 -5.06359495e-01 -4.90832464e-01 -4.81550922e-01 -4.73202899e-01
 -4.52468149e-01 -4.49539831e-01 -4.34246150e-01 -4.21882228e-01
 -4.07878885e-01 -3.97638024e-01 -3.86340601e-01 -3.76406887e-01
 -3.61778142e-01 -3.59260268e-01 -3.51132458e-01 -3.42559772e-01
 -3.41746311e-01 -3.31532627e-01 -3.23545274e-01 -3.11765024e-01
 -3.03856553e-01 -2.86889626e-01 -2.73513946e-01 -2.57126468e-01
 -2.53258274e-01 -2.38245338e-01 -2.36696714e-01 -2.17561891e-01
 -2.08033216e-01 -2.00571769e-01 -1.84689415e-01 -1.33573029e-01
 -9.54147443e-02 -2.94173904e-02  6.80805788e-03  6.71066500e-02
  8.21124944e-02  1.00534854e-01  1.11613209e-01  1.44831210e-01
  1.58599492e-01  2.10207769e-01  2.42261727e-01  2.43986496e-01
  2.62111232e-01  2.92477937e-01  2.95210158e-01  3.05794399e-01
  3.22119509e-01  3.31773863e-01  3.41889672e-01  3.64115168e-01
  3.81942249e-01  3.97875977e-01  4.08720422e-01  4.23105619e-01
  4.36672913e-01  4.52476489e-01  4.70706296e-01  4.77736472e-01
  4.91971930e-01  5.00782662e-01  5.31994288e-01  5.51094478e-01
  5.63093518e-01  5.73609548e-01  5.83913994e-01  5.90202043e-01
  6.16491708e-01  6.23849765e-01  6.33009056e-01  6.62392259e-01
  6.71065315e-01  6.88799416e-01  7.27909405e-01  7.39983133e-01
  7.60455744e-01  7.92805340e-01  8.13038688e-01  8.34805924e-01
  8.53230145e-01  8.70869695e-01  8.97398549e-01  9.25231009e-01]
nelec by numeric integration = 145.99999619079094
    CPU time for vxc     38.10 sec, wall time     15.79 sec
E1 = -4077.8218023169457  Ecoul = 1883.9408537239358  Exc = -124.5492510403301
cycle= 5 E= -835.720545959356  delta_E= -0.00175  |g|= 0.0312  |ddm|= 0.137
    CPU time for cycle= 5     38.64 sec, wall time     15.87 sec
  HOMO = -0.0952143533710605  LUMO = -0.0282878800253906
  mo_energy =
[-1.00365484e+01 -1.00308125e+01 -1.00305773e+01 -1.00283543e+01
 -1.00259408e+01 -1.00253857e+01 -1.00198375e+01 -1.00155327e+01
 -1.00133276e+01 -1.00119275e+01 -1.00114705e+01 -1.00109280e+01
 -1.00100038e+01 -1.00091051e+01 -1.00083735e+01 -1.00072464e+01
 -1.00046880e+01 -1.00044690e+01 -1.00036364e+01 -1.00001008e+01
 -9.99219830e+00 -9.98521378e+00 -8.44658892e-01 -8.24945087e-01
 -8.00323699e-01 -7.76512475e-01 -7.50852285e-01 -7.39102935e-01
 -7.29615318e-01 -7.24917331e-01 -6.86438146e-01 -6.69265840e-01
 -6.42137038e-01 -6.25821544e-01 -6.02391535e-01 -5.81972687e-01
 -5.73000142e-01 -5.69974181e-01 -5.43685472e-01 -5.35724128e-01
 -5.05612219e-01 -4.90368545e-01 -4.80714626e-01 -4.71992748e-01
 -4.51790840e-01 -4.49084822e-01 -4.33640987e-01 -4.21095061e-01
 -4.07119417e-01 -3.96573611e-01 -3.85742833e-01 -3.76331440e-01
 -3.60128473e-01 -3.57718329e-01 -3.50464824e-01 -3.41593773e-01
 -3.40600034e-01 -3.30373110e-01 -3.22496771e-01 -3.10579853e-01
 -3.02575572e-01 -2.86197919e-01 -2.72501874e-01 -2.56301400e-01
 -2.52318367e-01 -2.37138252e-01 -2.35859346e-01 -2.16241410e-01
 -2.07120999e-01 -1.99382362e-01 -1.83600374e-01 -1.32369608e-01
 -9.52143534e-02 -2.82878800e-02  8.31962183e-03  6.83329884e-02
  8.34425042e-02  1.01898164e-01  1.12831567e-01  1.45727010e-01
  1.59806890e-01  2.11406338e-01  2.43187250e-01  2.45090224e-01
  2.63117228e-01  2.93132381e-01  2.96079393e-01  3.06613305e-01
  3.23218434e-01  3.32436191e-01  3.43708778e-01  3.64477915e-01
  3.82713065e-01  3.99019999e-01  4.09507901e-01  4.24688655e-01
  4.38147855e-01  4.52598880e-01  4.71928734e-01  4.78654481e-01
  4.93708017e-01  5.01396264e-01  5.32557272e-01  5.51581421e-01
  5.64391570e-01  5.73656535e-01  5.85245796e-01  5.91468401e-01
  6.17322481e-01  6.24364473e-01  6.33798158e-01  6.64159365e-01
  6.72533229e-01  6.89859680e-01  7.28682145e-01  7.40968570e-01
  7.61359626e-01  7.92953196e-01  8.13927290e-01  8.36191774e-01
  8.55014257e-01  8.71375577e-01  8.98936590e-01  9.25551680e-01]
nelec by numeric integration = 145.9999961913498
    CPU time for vxc     37.99 sec, wall time     15.84 sec
E1 = -4077.770777645186  Ecoul = 1883.8868169199511  Exc = -124.54650928763971
cycle= 6 E= -835.720816338891  delta_E= -0.00027  |g|= 0.0144  |ddm|= 0.0506
    CPU time for cycle= 6     38.42 sec, wall time     15.91 sec
  HOMO = -0.0950223783100876  LUMO = -0.0280554943962237
  mo_energy =
[-1.00362037e+01 -1.00304077e+01 -1.00303942e+01 -1.00276446e+01
 -1.00245543e+01 -1.00242365e+01 -1.00195929e+01 -1.00152073e+01
 -1.00141314e+01 -1.00115170e+01 -1.00107772e+01 -1.00107177e+01
 -1.00095720e+01 -1.00093371e+01 -1.00092760e+01 -1.00060363e+01
 -1.00047610e+01 -1.00036659e+01 -1.00030225e+01 -1.00022511e+01
 -9.99043769e+00 -9.98657851e+00 -8.44301881e-01 -8.24698015e-01
 -8.00118170e-01 -7.76392169e-01 -7.50718664e-01 -7.39005762e-01
 -7.29406377e-01 -7.24744330e-01 -6.86447060e-01 -6.69228591e-01
 -6.41957651e-01 -6.25712079e-01 -6.02235776e-01 -5.81738710e-01
 -5.72867571e-01 -5.69737025e-01 -5.43474553e-01 -5.35797113e-01
 -5.05637273e-01 -4.90256836e-01 -4.80562890e-01 -4.71912609e-01
 -4.51647109e-01 -4.48959273e-01 -4.33591049e-01 -4.20762735e-01
 -4.07058549e-01 -3.96350265e-01 -3.85471855e-01 -3.76112348e-01
 -3.60090680e-01 -3.57773105e-01 -3.50516180e-01 -3.41401944e-01
 -3.40393278e-01 -3.30250795e-01 -3.22349587e-01 -3.10346670e-01
 -3.02387639e-01 -2.85794512e-01 -2.72333254e-01 -2.56133383e-01
 -2.52133607e-01 -2.36949802e-01 -2.35570959e-01 -2.16202506e-01
 -2.06853574e-01 -1.99236081e-01 -1.83593281e-01 -1.32196068e-01
 -9.50223783e-02 -2.80554944e-02  8.55574096e-03  6.86787448e-02
  8.35959078e-02  1.02122577e-01  1.12877591e-01  1.45594874e-01
  1.60050762e-01  2.11633988e-01  2.43359542e-01  2.45599577e-01
  2.63466648e-01  2.93426965e-01  2.96285741e-01  3.06898598e-01
  3.23275731e-01  3.32775980e-01  3.43804198e-01  3.64923015e-01
  3.82926319e-01  3.99125334e-01  4.09868925e-01  4.24486307e-01
  4.38146538e-01  4.52738019e-01  4.72104500e-01  4.78839028e-01
  4.93714452e-01  5.01461513e-01  5.32645830e-01  5.51501205e-01
  5.64273067e-01  5.74263300e-01  5.85278321e-01  5.91452044e-01
  6.17480142e-01  6.24278957e-01  6.34161051e-01  6.63789843e-01
  6.72638253e-01  6.90031592e-01  7.28776882e-01  7.41322749e-01
  7.61617024e-01  7.93143385e-01  8.14247459e-01  8.36340390e-01
  8.55182167e-01  8.71620920e-01  8.99031084e-01  9.25539663e-01]
nelec by numeric integration = 145.99999619292356
    CPU time for vxc     38.15 sec, wall time     15.75 sec
E1 = -4077.7492227431994  Ecoul = 1883.8649576577282  Exc = -124.54626538562067
cycle= 7 E= -835.720876797108  delta_E= -6.05e-05  |g|= 0.00665  |ddm|= 0.0196
    CPU time for cycle= 7     38.58 sec, wall time     15.82 sec
  HOMO = -0.0951305009798293  LUMO = -0.028166149512924
  mo_energy =
[-1.00360461e+01 -1.00310174e+01 -1.00304188e+01 -1.00277932e+01
 -1.00245485e+01 -1.00241376e+01 -1.00196013e+01 -1.00150804e+01
 -1.00146195e+01 -1.00114658e+01 -1.00107019e+01 -1.00104565e+01
 -1.00101602e+01 -1.00095440e+01 -1.00092066e+01 -1.00052790e+01
 -1.00046527e+01 -1.00038590e+01 -1.00036272e+01 -1.00018410e+01
 -9.99052834e+00 -9.98634583e+00 -8.44554855e-01 -8.24648906e-01
 -8.00166338e-01 -7.76634211e-01 -7.50716527e-01 -7.38923010e-01
 -7.29357524e-01 -7.24686855e-01 -6.86461972e-01 -6.69211852e-01
 -6.42018838e-01 -6.25764061e-01 -6.02237866e-01 -5.81767384e-01
 -5.72876981e-01 -5.69825834e-01 -5.43448019e-01 -5.35785809e-01
 -5.05672582e-01 -4.90358800e-01 -4.80527916e-01 -4.71962940e-01
 -4.51680572e-01 -4.48994547e-01 -4.33602399e-01 -4.20797091e-01
 -4.07048784e-01 -3.96438175e-01 -3.85503388e-01 -3.76104235e-01
 -3.60133830e-01 -3.57765019e-01 -3.50493972e-01 -3.41375622e-01
 -3.40368071e-01 -3.30351656e-01 -3.22407043e-01 -3.10431856e-01
 -3.02433490e-01 -2.85779616e-01 -2.72520323e-01 -2.56160613e-01
 -2.52129002e-01 -2.36891561e-01 -2.35580150e-01 -2.16115061e-01
 -2.06840497e-01 -1.99214484e-01 -1.83569874e-01 -1.32186731e-01
 -9.51305010e-02 -2.81661495e-02  8.59212525e-03  6.86888269e-02
  8.36331995e-02  1.02166554e-01  1.12903263e-01  1.45607590e-01
  1.59862959e-01  2.11614511e-01  2.43383662e-01  2.45625368e-01
  2.63483370e-01  2.93418462e-01  2.96165825e-01  3.06827780e-01
  3.23302402e-01  3.32743960e-01  3.43853098e-01  3.64647257e-01
  3.82991433e-01  3.99139847e-01  4.09881478e-01  4.24578400e-01
  4.38096190e-01  4.52642769e-01  4.72113659e-01  4.78834369e-01
  4.93673649e-01  5.01462683e-01  5.32655449e-01  5.51506893e-01
  5.64323406e-01  5.74270032e-01  5.85247915e-01  5.91486005e-01
  6.17479426e-01  6.24270150e-01  6.34014357e-01  6.63978976e-01
  6.72696904e-01  6.89906085e-01  7.28743560e-01  7.41370960e-01
  7.61422570e-01  7.93128267e-01  8.14058275e-01  8.36245418e-01
  8.55233505e-01  8.71641437e-01  8.99032492e-01  9.25181859e-01]
nelec by numeric integration = 145.99999619258097
    CPU time for vxc     37.98 sec, wall time     15.77 sec
E1 = -4077.7626678906013  Ecoul = 1883.8784290233184  Exc = -124.54630362912859
cycle= 8 E= -835.720888822427  delta_E= -1.2e-05  |g|= 0.00409  |ddm|= 0.00842
    CPU time for cycle= 8     38.53 sec, wall time     15.85 sec
  HOMO = -0.0951259107665397  LUMO = -0.028159574769904
  mo_energy =
[-1.00360650e+01 -1.00312200e+01 -1.00304436e+01 -1.00279545e+01
 -1.00248001e+01 -1.00244399e+01 -1.00197610e+01 -1.00150070e+01
 -1.00148912e+01 -1.00115651e+01 -1.00106093e+01 -1.00105034e+01
 -1.00102444e+01 -1.00094650e+01 -1.00091247e+01 -1.00056379e+01
 -1.00049008e+01 -1.00038657e+01 -1.00037598e+01 -1.00017682e+01
 -9.98986868e+00 -9.98644652e+00 -8.44698595e-01 -8.24658312e-01
 -8.00267821e-01 -7.76760949e-01 -7.50801283e-01 -7.38918001e-01
 -7.29432863e-01 -7.24680413e-01 -6.86519502e-01 -6.69285259e-01
 -6.42019614e-01 -6.25783180e-01 -6.02286299e-01 -5.81849138e-01
 -5.72894253e-01 -5.69829708e-01 -5.43422112e-01 -5.35855841e-01
 -5.05722375e-01 -4.90437259e-01 -4.80540307e-01 -4.72035402e-01
 -4.51755840e-01 -4.49005624e-01 -4.33617028e-01 -4.20799355e-01
 -4.07142811e-01 -3.96522538e-01 -3.85534019e-01 -3.76227593e-01
 -3.60231705e-01 -3.57807627e-01 -3.50555401e-01 -3.41356628e-01
 -3.40376023e-01 -3.30409211e-01 -3.22517362e-01 -3.10469068e-01
 -3.02527125e-01 -2.85689864e-01 -2.72635956e-01 -2.56176318e-01
 -2.52222381e-01 -2.36904796e-01 -2.35639140e-01 -2.16163084e-01
 -2.06827360e-01 -1.99205069e-01 -1.83626140e-01 -1.32242686e-01
 -9.51259108e-02 -2.81595748e-02  8.55672813e-03  6.87195755e-02
  8.36016232e-02  1.02141276e-01  1.12818907e-01  1.45528913e-01
  1.59768949e-01  2.11541227e-01  2.43389500e-01  2.45749737e-01
  2.63471454e-01  2.93301248e-01  2.96097477e-01  3.06708987e-01
  3.23228519e-01  3.32699895e-01  3.43770366e-01  3.64615342e-01
  3.83055374e-01  3.99089987e-01  4.09938347e-01  4.24537039e-01
  4.38011242e-01  4.52497531e-01  4.72073271e-01  4.78818076e-01
  4.93643225e-01  5.01462492e-01  5.32573813e-01  5.51414597e-01
  5.64228025e-01  5.74494853e-01  5.85175291e-01  5.91402802e-01
  6.17440929e-01  6.24228215e-01  6.33974327e-01  6.63909923e-01
  6.72676593e-01  6.89795958e-01  7.28626341e-01  7.41406862e-01
  7.61328529e-01  7.92990345e-01  8.13955113e-01  8.36164893e-01
  8.55214027e-01  8.71517283e-01  8.98958265e-01  9.25076714e-01]
nelec by numeric integration = 145.99999619220708
    CPU time for vxc     37.80 sec, wall time     15.71 sec
E1 = -4077.779509173608  Ecoul = 1883.8953471085667  Exc = -124.54638622742105
cycle= 9 E= -835.720894618478  delta_E= -5.8e-06  |g|= 0.00159  |ddm|= 0.00551
    CPU time for cycle= 9     38.19 sec, wall time     15.78 sec
  HOMO = -0.0951566199099223  LUMO = -0.0281877864306476
  mo_energy =
[-1.00360532e+01 -1.00311678e+01 -1.00303123e+01 -1.00279637e+01
 -1.00247923e+01 -1.00243806e+01 -1.00197081e+01 -1.00150144e+01
 -1.00145616e+01 -1.00115017e+01 -1.00105720e+01 -1.00105054e+01
 -1.00104858e+01 -1.00096128e+01 -1.00092441e+01 -1.00056190e+01
 -1.00047673e+01 -1.00040256e+01 -1.00038511e+01 -1.00018869e+01
 -9.98985004e+00 -9.98663838e+00 -8.44699809e-01 -8.24632607e-01
 -8.00275745e-01 -7.76738753e-01 -7.50798443e-01 -7.38912046e-01
 -7.29451173e-01 -7.24670625e-01 -6.86559212e-01 -6.69278109e-01
 -6.42038764e-01 -6.25803496e-01 -6.02269204e-01 -5.81867573e-01
 -5.72888907e-01 -5.69819078e-01 -5.43411139e-01 -5.35857830e-01
 -5.05746869e-01 -4.90454412e-01 -4.80516304e-01 -4.72053540e-01
 -4.51743268e-01 -4.48997782e-01 -4.33599581e-01 -4.20772082e-01
 -4.07164629e-01 -3.96528382e-01 -3.85510889e-01 -3.76207023e-01
 -3.60244524e-01 -3.57830969e-01 -3.50543962e-01 -3.41353294e-01
 -3.40366838e-01 -3.30449638e-01 -3.22512898e-01 -3.10484605e-01
 -3.02533719e-01 -2.85676797e-01 -2.72622397e-01 -2.56172995e-01
 -2.52244330e-01 -2.36897066e-01 -2.35643686e-01 -2.16198094e-01
 -2.06812102e-01 -1.99201517e-01 -1.83653093e-01 -1.32253704e-01
 -9.51566199e-02 -2.81877864e-02  8.54756806e-03  6.87447699e-02
  8.35907143e-02  1.02119183e-01  1.12825847e-01  1.45494894e-01
  1.59769842e-01  2.11543880e-01  2.43402692e-01  2.45769422e-01
  2.63491973e-01  2.93320335e-01  2.96083344e-01  3.06706252e-01
  3.23240512e-01  3.32706726e-01  3.43727180e-01  3.64561681e-01
  3.83068714e-01  3.99104550e-01  4.09969623e-01  4.24528156e-01
  4.38014982e-01  4.52507608e-01  4.72086867e-01  4.78856753e-01
  4.93607865e-01  5.01452824e-01  5.32582877e-01  5.51384109e-01
  5.64227266e-01  5.74524221e-01  5.85145516e-01  5.91396182e-01
  6.17440706e-01  6.24190746e-01  6.33964953e-01  6.63879035e-01
  6.72714582e-01  6.89837305e-01  7.28613192e-01  7.41427541e-01
  7.61327567e-01  7.92960818e-01  8.13923043e-01  8.36211016e-01
  8.55253637e-01  8.71511400e-01  8.99021315e-01  9.24976696e-01]
nelec by numeric integration = 145.99999619203803
    CPU time for vxc     38.11 sec, wall time     15.79 sec
E1 = -4077.781284777124  Ecoul = 1883.8971396255374  Exc = -124.54640404562389
cycle= 10 E= -835.720895523226  delta_E= -9.05e-07  |g|= 0.00057  |ddm|= 0.00312
    CPU time for cycle= 10     38.61 sec, wall time     15.87 sec
  HOMO = -0.095126307831984  LUMO = -0.028168521880493
  mo_energy =
[-1.00360476e+01 -1.00311767e+01 -1.00303258e+01 -1.00279290e+01
 -1.00248499e+01 -1.00243378e+01 -1.00197729e+01 -1.00150099e+01
 -1.00146960e+01 -1.00115824e+01 -1.00105206e+01 -1.00104454e+01
 -1.00104214e+01 -1.00096025e+01 -1.00092023e+01 -1.00055100e+01
 -1.00048144e+01 -1.00040024e+01 -1.00038122e+01 -1.00017968e+01
 -9.98970439e+00 -9.98655641e+00 -8.44708824e-01 -8.24632473e-01
 -8.00264195e-01 -7.76761097e-01 -7.50796187e-01 -7.38896518e-01
 -7.29426452e-01 -7.24655423e-01 -6.86537324e-01 -6.69275157e-01
 -6.42017797e-01 -6.25784349e-01 -6.02261881e-01 -5.81851475e-01
 -5.72884734e-01 -5.69811899e-01 -5.43400923e-01 -5.35855424e-01
 -5.05728862e-01 -4.90453400e-01 -4.80517140e-01 -4.72044658e-01
 -4.51747089e-01 -4.48995074e-01 -4.33604527e-01 -4.20775559e-01
 -4.07146197e-01 -3.96523531e-01 -3.85525873e-01 -3.76215671e-01
 -3.60237390e-01 -3.57814158e-01 -3.50559206e-01 -3.41338832e-01
 -3.40360240e-01 -3.30431400e-01 -3.22515941e-01 -3.10475391e-01
 -3.02525283e-01 -2.85652527e-01 -2.72633269e-01 -2.56169706e-01
 -2.52224129e-01 -2.36882551e-01 -2.35634975e-01 -2.16161846e-01
 -2.06798748e-01 -1.99183058e-01 -1.83632704e-01 -1.32236737e-01
 -9.51263078e-02 -2.81685219e-02  8.56465061e-03  6.87577786e-02
  8.36115587e-02  1.02146231e-01  1.12831840e-01  1.45510294e-01
  1.59767412e-01  2.11552448e-01  2.43410062e-01  2.45803616e-01
  2.63497380e-01  2.93323301e-01  2.96087172e-01  3.06710683e-01
  3.23238319e-01  3.32714724e-01  3.43763102e-01  3.64565559e-01
  3.83083983e-01  3.99089148e-01  4.09981744e-01  4.24529144e-01
  4.38016306e-01  4.52491836e-01  4.72091577e-01  4.78848273e-01
  4.93620738e-01  5.01453088e-01  5.32584002e-01  5.51403613e-01
  5.64230689e-01  5.74568205e-01  5.85163724e-01  5.91406719e-01
  6.17446766e-01  6.24212520e-01  6.33968859e-01  6.63915863e-01
  6.72716247e-01  6.89808799e-01  7.28629265e-01  7.41436100e-01
  7.61318101e-01  7.92987941e-01  8.13933853e-01  8.36183552e-01
  8.55255377e-01  8.71529054e-01  8.98993750e-01  9.25001226e-01]
nelec by numeric integration = 145.99999619204704
    CPU time for vxc     38.66 sec, wall time     15.91 sec
E1 = -4077.783444186318  Ecoul = 1883.8992720516737  Exc = -124.54637717064175
cycle= 11 E= -835.720895631302  delta_E= -1.08e-07  |g|= 0.000253  |ddm|= 0.00124
    CPU time for cycle= 11     39.16 sec, wall time     15.99 sec
  HOMO = -0.0951253764838639  LUMO = -0.0281674429570932
  mo_energy =
[-1.00360181e+01 -1.00312030e+01 -1.00303221e+01 -1.00279413e+01
 -1.00248187e+01 -1.00243647e+01 -1.00197318e+01 -1.00149745e+01
 -1.00146890e+01 -1.00115198e+01 -1.00105249e+01 -1.00104505e+01
 -1.00104396e+01 -1.00095595e+01 -1.00091874e+01 -1.00055329e+01
 -1.00048026e+01 -1.00040084e+01 -1.00038082e+01 -1.00018059e+01
 -9.98971164e+00 -9.98655409e+00 -8.44709735e-01 -8.24616029e-01
 -8.00262295e-01 -7.76759053e-01 -7.50789578e-01 -7.38887315e-01
 -7.29425784e-01 -7.24648396e-01 -6.86534480e-01 -6.69270710e-01
 -6.42017339e-01 -6.25782903e-01 -6.02259206e-01 -5.81852203e-01
 -5.72880490e-01 -5.69810707e-01 -5.43393775e-01 -5.35850006e-01
 -5.05731674e-01 -4.90451640e-01 -4.80508415e-01 -4.72041964e-01
 -4.51743810e-01 -4.48989772e-01 -4.33597761e-01 -4.20769477e-01
 -4.07146914e-01 -3.96523345e-01 -3.85512522e-01 -3.76211323e-01
 -3.60235827e-01 -3.57811123e-01 -3.50545752e-01 -3.41331409e-01
 -3.40349076e-01 -3.30433175e-01 -3.22512058e-01 -3.10471963e-01
 -3.02522733e-01 -2.85648129e-01 -2.72631723e-01 -2.56161162e-01
 -2.52225335e-01 -2.36874952e-01 -2.35628745e-01 -2.16162752e-01
 -2.06790289e-01 -1.99177704e-01 -1.83629029e-01 -1.32232163e-01
 -9.51253765e-02 -2.81674430e-02  8.56898053e-03  6.87655201e-02
  8.36161137e-02  1.02149013e-01  1.12836943e-01  1.45515379e-01
  1.59767979e-01  2.11556826e-01  2.43420076e-01  2.45807911e-01
  2.63508578e-01  2.93325617e-01  2.96091620e-01  3.06712588e-01
  3.23251161e-01  3.32719332e-01  3.43760811e-01  3.64563657e-01
  3.83091848e-01  3.99102484e-01  4.09984379e-01  4.24539770e-01
  4.38016296e-01  4.52494903e-01  4.72095816e-01  4.78855171e-01
  4.93624790e-01  5.01461445e-01  5.32588352e-01  5.51402571e-01
  5.64234319e-01  5.74568325e-01  5.85162080e-01  5.91409173e-01
  6.17455551e-01  6.24217163e-01  6.33972762e-01  6.63910770e-01
  6.72728070e-01  6.89819660e-01  7.28624532e-01  7.41449200e-01
  7.61321757e-01  7.92979030e-01  8.13933926e-01  8.36199843e-01
  8.55266955e-01  8.71527586e-01  8.99013870e-01  9.24988667e-01]
nelec by numeric integration = 145.9999961920588
    CPU time for vxc     38.92 sec, wall time     15.93 sec
E1 = -4077.7828595532646  Ecoul = 1883.8986780264768  Exc = -124.54636780001317
cycle= 12 E= -835.720895652817  delta_E= -2.15e-08  |g|= 7.98e-05  |ddm|= 0.000471
    CPU time for cycle= 12     39.42 sec, wall time     16.01 sec
  HOMO = -0.0951245301039521  LUMO = -0.0281668154142321
  mo_energy =
[-1.00360297e+01 -1.00312002e+01 -1.00303324e+01 -1.00279430e+01
 -1.00248046e+01 -1.00243617e+01 -1.00197335e+01 -1.00149830e+01
 -1.00146852e+01 -1.00115288e+01 -1.00105265e+01 -1.00104474e+01
 -1.00104350e+01 -1.00095588e+01 -1.00091818e+01 -1.00055245e+01
 -1.00047885e+01 -1.00039995e+01 -1.00038132e+01 -1.00017993e+01
 -9.98972162e+00 -9.98655691e+00 -8.44704706e-01 -8.24622039e-01
 -8.00259796e-01 -7.76754808e-01 -7.50786456e-01 -7.38892734e-01
 -7.29423583e-01 -7.24649875e-01 -6.86535120e-01 -6.69267905e-01
 -6.42017356e-01 -6.25782682e-01 -6.02257829e-01 -5.81849687e-01
 -5.72881271e-01 -5.69811284e-01 -5.43396780e-01 -5.35849462e-01
 -5.05729462e-01 -4.90448266e-01 -4.80511254e-01 -4.72039698e-01
 -4.51742197e-01 -4.48990994e-01 -4.33598914e-01 -4.20770328e-01
 -4.07143835e-01 -3.96520644e-01 -3.85513995e-01 -3.76207244e-01
 -3.60232399e-01 -3.57809647e-01 -3.50546670e-01 -3.41335273e-01
 -3.40352846e-01 -3.30430633e-01 -3.22508467e-01 -3.10469858e-01
 -3.02520265e-01 -2.85652595e-01 -2.72628073e-01 -2.56162987e-01
 -2.52221733e-01 -2.36878560e-01 -2.35627190e-01 -2.16160889e-01
 -2.06793233e-01 -1.99179868e-01 -1.83630452e-01 -1.32229309e-01
 -9.51245301e-02 -2.81668154e-02  8.57079713e-03  6.87623720e-02
  8.36142014e-02  1.02149899e-01  1.12838233e-01  1.45515856e-01
  1.59771025e-01  2.11557613e-01  2.43415835e-01  2.45802685e-01
  2.63505080e-01  2.93328237e-01  2.96093033e-01  3.06715414e-01
  3.23247866e-01  3.32719292e-01  3.43763986e-01  3.64567698e-01
  3.83086478e-01  3.99103409e-01  4.09980487e-01  4.24541053e-01
  4.38019482e-01  4.52501067e-01  4.72095464e-01  4.78853890e-01
  4.93626957e-01  5.01460065e-01  5.32589742e-01  5.51404789e-01
  5.64238650e-01  5.74561598e-01  5.85165667e-01  5.91413305e-01
  6.17453250e-01  6.24215062e-01  6.33973144e-01  6.63915033e-01
  6.72721422e-01  6.89821794e-01  7.28629516e-01  7.41445194e-01
  7.61326002e-01  7.92984784e-01  8.13937168e-01  8.36198665e-01
  8.55261016e-01  8.71531676e-01  8.99009405e-01  9.24995848e-01]
nelec by numeric integration = 145.99999619207068
    CPU time for vxc     38.19 sec, wall time     15.75 sec
E1 = -4077.7826827255026  Ecoul = 1883.8985005533643  Exc = -124.54636715698244
cycle= 13 E= -835.720895655136  delta_E= -2.32e-09  |g|= 3.3e-05  |ddm|= 0.00017
    CPU time for cycle= 13     38.92 sec, wall time     15.86 sec
  HOMO = -0.095124989278296  LUMO = -0.0281673433563653
  mo_energy =
[-1.00360262e+01 -1.00312006e+01 -1.00303270e+01 -1.00279406e+01
 -1.00248135e+01 -1.00243613e+01 -1.00197352e+01 -1.00149824e+01
 -1.00146889e+01 -1.00115275e+01 -1.00105280e+01 -1.00104452e+01
 -1.00104389e+01 -1.00095594e+01 -1.00091849e+01 -1.00055280e+01
 -1.00047969e+01 -1.00039997e+01 -1.00038101e+01 -1.00018028e+01
 -9.98972312e+00 -9.98655457e+00 -8.44706494e-01 -8.24620335e-01
 -8.00260725e-01 -7.76756488e-01 -7.50788221e-01 -7.38891014e-01
 -7.29424440e-01 -7.24650311e-01 -6.86534695e-01 -6.69269574e-01
 -6.42017606e-01 -6.25782970e-01 -6.02259085e-01 -5.81850392e-01
 -5.72881312e-01 -5.69811629e-01 -5.43396417e-01 -5.35849832e-01
 -5.05730227e-01 -4.90449448e-01 -4.80510640e-01 -4.72040668e-01
 -4.51742811e-01 -4.48990861e-01 -4.33598921e-01 -4.20770929e-01
 -4.07144840e-01 -3.96521516e-01 -3.85514069e-01 -3.76209132e-01
 -3.60233819e-01 -3.57810431e-01 -3.50546583e-01 -3.41334244e-01
 -3.40351898e-01 -3.30431206e-01 -3.22510031e-01 -3.10471016e-01
 -3.02521242e-01 -2.85652019e-01 -2.72629546e-01 -2.56162932e-01
 -2.52223074e-01 -2.36877586e-01 -2.35628318e-01 -2.16161717e-01
 -2.06792969e-01 -1.99179762e-01 -1.83630014e-01 -1.32230845e-01
 -9.51249893e-02 -2.81673434e-02  8.56920007e-03  6.87623649e-02
  8.36147070e-02  1.02149174e-01  1.12837470e-01  1.45515615e-01
  1.59769786e-01  2.11556988e-01  2.43416922e-01  2.45803118e-01
  2.63505710e-01  2.93326824e-01  2.96092215e-01  3.06714385e-01
  3.23248768e-01  3.32718839e-01  3.43763065e-01  3.64567258e-01
  3.83087759e-01  3.99102577e-01  4.09980974e-01  4.24540243e-01
  4.38018346e-01  4.52498113e-01  4.72095482e-01  4.78853957e-01
  4.93626216e-01  5.01460428e-01  5.32588830e-01  5.51404126e-01
  5.64236525e-01  5.74561707e-01  5.85164555e-01  5.91411446e-01
  6.17453786e-01  6.24215936e-01  6.33972952e-01  6.63913285e-01
  6.72723472e-01  6.89820518e-01  7.28627725e-01  7.41445307e-01
  7.61324307e-01  7.92982977e-01  8.13936469e-01  8.36198123e-01
  8.55262736e-01  8.71530147e-01  8.99010157e-01  9.24994294e-01]
nelec by numeric integration = 145.99999619206986
    CPU time for vxc     39.12 sec, wall time     15.98 sec
E1 = -4077.7826888830505  Ecoul = 1883.8985081705043  Exc = -124.54636861697216
cycle= 14 E= -835.720895655534  delta_E= -3.98e-10  |g|= 6.45e-06  |ddm|= 5.62e-05
    CPU time for cycle= 14     39.65 sec, wall time     16.07 sec
  HOMO = -0.0951249847219583  LUMO = -0.0281673137802606
  mo_energy =
[-1.00360262e+01 -1.00311993e+01 -1.00303284e+01 -1.00279403e+01
 -1.00248122e+01 -1.00243611e+01 -1.00197343e+01 -1.00149826e+01
 -1.00146890e+01 -1.00115278e+01 -1.00105283e+01 -1.00104458e+01
 -1.00104384e+01 -1.00095599e+01 -1.00091852e+01 -1.00055286e+01
 -1.00047974e+01 -1.00040004e+01 -1.00038092e+01 -1.00018030e+01
 -9.98972296e+00 -9.98655440e+00 -8.44706093e-01 -8.24620549e-01
 -8.00260666e-01 -7.76756205e-01 -7.50788192e-01 -7.38891243e-01
 -7.29424541e-01 -7.24650389e-01 -6.86534514e-01 -6.69269515e-01
 -6.42017583e-01 -6.25782923e-01 -6.02258999e-01 -5.81850402e-01
 -5.72881305e-01 -5.69811567e-01 -5.43396474e-01 -5.35849748e-01
 -5.05730149e-01 -4.90449365e-01 -4.80510826e-01 -4.72040581e-01
 -4.51742819e-01 -4.48990847e-01 -4.33598901e-01 -4.20770891e-01
 -4.07144837e-01 -3.96521431e-01 -3.85514085e-01 -3.76209095e-01
 -3.60233678e-01 -3.57810408e-01 -3.50546539e-01 -3.41334344e-01
 -3.40352036e-01 -3.30431123e-01 -3.22509941e-01 -3.10470911e-01
 -3.02521172e-01 -2.85652068e-01 -2.72629311e-01 -2.56162716e-01
 -2.52223058e-01 -2.36877785e-01 -2.35628281e-01 -2.16161825e-01
 -2.06793036e-01 -1.99179824e-01 -1.83629879e-01 -1.32230785e-01
 -9.51249847e-02 -2.81673138e-02  8.56920756e-03  6.87622800e-02
  8.36146781e-02  1.02149083e-01  1.12837369e-01  1.45515787e-01
  1.59770009e-01  2.11557044e-01  2.43416842e-01  2.45803017e-01
  2.63505622e-01  2.93326989e-01  2.96092518e-01  3.06714544e-01
  3.23248938e-01  3.32718938e-01  3.43762983e-01  3.64567309e-01
  3.83087630e-01  3.99102569e-01  4.09980877e-01  4.24540133e-01
  4.38018386e-01  4.52498473e-01  4.72095343e-01  4.78853826e-01
  4.93626150e-01  5.01460394e-01  5.32588902e-01  5.51404301e-01
  5.64236563e-01  5.74561744e-01  5.85164533e-01  5.91411419e-01
  6.17453818e-01  6.24216166e-01  6.33973040e-01  6.63913147e-01
  6.72723226e-01  6.89820659e-01  7.28627805e-01  7.41445227e-01
  7.61324449e-01  7.92983100e-01  8.13936589e-01  8.36198283e-01
  8.55262436e-01  8.71530106e-01  8.99010081e-01  9.24994789e-01]
nelec by numeric integration = 145.99999619207054
    CPU time for vxc     38.22 sec, wall time     15.76 sec
E1 = -4077.7826691873443  Ecoul = 1883.8984886109652  Exc = -124.54636875315609
cycle= 15 E= -835.720895655551  delta_E= -1.68e-11  |g|= 2.83e-06  |ddm|= 1.05e-05
    CPU time for cycle= 15     38.69 sec, wall time     15.84 sec
  HOMO = -0.0951248952485168  LUMO = -0.0281671445368233
  mo_energy =
[-1.00360261e+01 -1.00311994e+01 -1.00303279e+01 -1.00279403e+01
 -1.00248130e+01 -1.00243612e+01 -1.00197351e+01 -1.00149826e+01
 -1.00146891e+01 -1.00115279e+01 -1.00105283e+01 -1.00104452e+01
 -1.00104371e+01 -1.00095598e+01 -1.00091849e+01 -1.00055280e+01
 -1.00047968e+01 -1.00039996e+01 -1.00038097e+01 -1.00018024e+01
 -9.98972462e+00 -9.98655338e+00 -8.44706016e-01 -8.24620495e-01
 -8.00260575e-01 -7.76756139e-01 -7.50788124e-01 -7.38891088e-01
 -7.29424360e-01 -7.24650398e-01 -6.86534380e-01 -6.69269492e-01
 -6.42017469e-01 -6.25782837e-01 -6.02259048e-01 -5.81850253e-01
 -5.72881238e-01 -5.69811577e-01 -5.43396517e-01 -5.35849688e-01
 -5.05729965e-01 -4.90449190e-01 -4.80510768e-01 -4.72040441e-01
 -4.51742750e-01 -4.48990879e-01 -4.33598949e-01 -4.20770983e-01
 -4.07144622e-01 -3.96521355e-01 -3.85514128e-01 -3.76209015e-01
 -3.60233560e-01 -3.57810315e-01 -3.50546563e-01 -3.41334327e-01
 -3.40351993e-01 -3.30430946e-01 -3.22509850e-01 -3.10470887e-01
 -3.02521099e-01 -2.85652270e-01 -2.72629227e-01 -2.56162887e-01
 -2.52222893e-01 -2.36877632e-01 -2.35628271e-01 -2.16161619e-01
 -2.06793081e-01 -1.99179813e-01 -1.83629794e-01 -1.32230744e-01
 -9.51248952e-02 -2.81671445e-02  8.56917945e-03  6.87621611e-02
  8.36147698e-02  1.02149185e-01  1.12837545e-01  1.45515922e-01
  1.59770085e-01  2.11557077e-01  2.43416838e-01  2.45802791e-01
  2.63505592e-01  2.93326983e-01  2.96092491e-01  3.06714621e-01
  3.23248871e-01  3.32718901e-01  3.43763186e-01  3.64567516e-01
  3.83087562e-01  3.99102498e-01  4.09980799e-01  4.24540215e-01
  4.38018510e-01  4.52498529e-01  4.72095415e-01  4.78853785e-01
  4.93626308e-01  5.01460430e-01  5.32588986e-01  5.51404496e-01
  5.64236678e-01  5.74561210e-01  5.85164736e-01  5.91411542e-01
  6.17453880e-01  6.24216213e-01  6.33973103e-01  6.63913442e-01
  6.72723368e-01  6.89820576e-01  7.28628040e-01  7.41445136e-01
  7.61324541e-01  7.92983400e-01  8.13936769e-01  8.36198163e-01
  8.55262579e-01  8.71530331e-01  8.99010034e-01  9.24995276e-01]
nelec by numeric integration = 145.99999619207048
    CPU time for vxc     38.29 sec, wall time     15.82 sec
E1 = -4077.7826460808037  Ecoul = 1883.8984651580495  Exc = -124.54636840676352
Extra cycle  E= -835.720895655534  delta_E= 1.73e-11  |g|= 8.19e-06  |ddm|= 1.82e-05
    CPU time for scf_cycle    667.33 sec, wall time    272.29 sec
    CPU time for SCF    667.33 sec, wall time    272.29 sec
converged SCF energy = -835.720895655534
nelec by numeric integration = 145.99999619207048
    CPU time for vxc     38.62 sec, wall time     16.02 sec
 ** Mulliken pop  **
pop of  0 C 1s            1.99060
pop of  0 C 2s            1.11752
pop of  0 C 2px           0.99429
pop of  0 C 2py           0.95820
pop of  0 C 2pz           0.94248
pop of  1 C 1s            1.99086
pop of  1 C 2s            1.14121
pop of  1 C 2px           0.98174
pop of  1 C 2py           0.94560
pop of  1 C 2pz           0.93146
pop of  2 C 1s            1.99099
pop of  2 C 2s            1.13589
pop of  2 C 2px           1.01188
pop of  2 C 2py           0.95970
pop of  2 C 2pz           1.02999
pop of  3 C 1s            1.99118
pop of  3 C 2s            1.18217
pop of  3 C 2px           0.96008
pop of  3 C 2py           0.93297
pop of  3 C 2pz           0.96546
pop of  4 C 1s            1.99117
pop of  4 C 2s            1.16116
pop of  4 C 2px           1.00326
pop of  4 C 2py           0.94732
pop of  4 C 2pz           1.01430
pop of  5 C 1s            1.99074
pop of  5 C 2s            1.13160
pop of  5 C 2px           1.03142
pop of  5 C 2py           0.94507
pop of  5 C 2pz           0.99801
pop of  6 C 1s            1.99080
pop of  6 C 2s            1.15414
pop of  6 C 2px           0.99193
pop of  6 C 2py           1.00747
pop of  6 C 2pz           0.95474
pop of  7 C 1s            1.99124
pop of  7 C 2s            1.19389
pop of  7 C 2px           0.97549
pop of  7 C 2py           0.98309
pop of  7 C 2pz           0.94652
pop of  8 C 1s            1.99033
pop of  8 C 2s            1.07996
pop of  8 C 2px           0.98954
pop of  8 C 2py           0.99026
pop of  8 C 2pz           0.97032
pop of  9 C 1s            1.99065
pop of  9 C 2s            1.13946
pop of  9 C 2px           0.98839
pop of  9 C 2py           0.94121
pop of  9 C 2pz           0.91921
pop of  10 C 1s           1.99140
pop of  10 C 2s           1.10788
pop of  10 C 2px          1.03418
pop of  10 C 2py          0.95861
pop of  10 C 2pz          1.05216
pop of  11 C 1s           1.99052
pop of  11 C 2s           1.10704
pop of  11 C 2px          1.01846
pop of  11 C 2py          0.98416
pop of  11 C 2pz          1.01793
pop of  12 C 1s           1.99154
pop of  12 C 2s           1.22569
pop of  12 C 2px          0.95850
pop of  12 C 2py          0.91662
pop of  12 C 2pz          0.90498
pop of  13 C 1s           1.99123
pop of  13 C 2s           1.14908
pop of  13 C 2px          0.98029
pop of  13 C 2py          0.93873
pop of  13 C 2pz          0.92984
pop of  14 C 1s           1.99141
pop of  14 C 2s           1.21795
pop of  14 C 2px          0.98076
pop of  14 C 2py          0.92772
pop of  14 C 2pz          0.97117
pop of  15 C 1s           1.99102
pop of  15 C 2s           1.14838
pop of  15 C 2px          0.99888
pop of  15 C 2py          0.94548
pop of  15 C 2pz          0.97887
pop of  16 C 1s           1.99107
pop of  16 C 2s           1.14327
pop of  16 C 2px          0.95945
pop of  16 C 2py          0.93394
pop of  16 C 2pz          0.94127
pop of  17 C 1s           1.99035
pop of  17 C 2s           1.08148
pop of  17 C 2px          1.03443
pop of  17 C 2py          0.97239
pop of  17 C 2pz          0.94771
pop of  18 C 1s           1.99134
pop of  18 C 2s           1.13952
pop of  18 C 2px          1.01975
pop of  18 C 2py          0.94820
pop of  18 C 2pz          1.02471
pop of  19 C 1s           1.99077
pop of  19 C 2s           1.13876
pop of  19 C 2px          0.99897
pop of  19 C 2py          0.95358
pop of  19 C 2pz          0.99077
pop of  20 C 1s           1.99211
pop of  20 C 2s           1.28416
pop of  20 C 2px          0.91515
pop of  20 C 2py          0.96570
pop of  20 C 2pz          0.92760
pop of  21 C 1s           1.99135
pop of  21 C 2s           1.18038
pop of  21 C 2px          1.00798
pop of  21 C 2py          0.98487
pop of  21 C 2pz          0.92112
pop of  22 H 1s           0.88280
pop of  23 H 1s           0.93536
pop of  24 H 1s           0.88994
pop of  25 H 1s           0.90635
pop of  26 H 1s           0.90499
pop of  27 H 1s           0.90212
pop of  28 H 1s           0.87594
pop of  29 H 1s           0.90390
pop of  30 H 1s           0.92522
pop of  31 H 1s           0.93266
pop of  32 H 1s           0.87381
pop of  33 H 1s           0.92407
pop of  34 H 1s           0.91501
pop of  35 H 1s           0.90818
 ** Mulliken atomic charges  **
charge of    0C =     -0.00309
charge of    1C =      0.00912
charge of    2C =     -0.12846
charge of    3C =     -0.03187
charge of    4C =     -0.11722
charge of    5C =     -0.09684
charge of    6C =     -0.09907
charge of    7C =     -0.09023
charge of    8C =     -0.02041
charge of    9C =      0.02108
charge of   10C =     -0.14424
charge of   11C =     -0.11812
charge of   12C =      0.00267
charge of   13C =      0.01083
charge of   14C =     -0.08901
charge of   15C =     -0.06262
charge of   16C =      0.03099
charge of   17C =     -0.02636
charge of   18C =     -0.12352
charge of   19C =     -0.07286
charge of   20C =     -0.08473
charge of   21C =     -0.08570
charge of   22H =      0.11720
charge of   23H =      0.06464
charge of   24H =      0.11006
charge of   25H =      0.09365
charge of   26H =      0.09501
charge of   27H =      0.09788
charge of   28H =      0.12406
charge of   29H =      0.09610
charge of   30H =      0.07478
charge of   31H =      0.06734
charge of   32H =      0.12619
charge of   33H =      0.07593
charge of   34H =      0.08499
charge of   35H =      0.09182
Dipole moment(X, Y, Z, Debye):  0.09914, -0.86583,  0.15796
nelec by numeric integration = 145.99999619207048
    CPU time for vxc     38.15 sec, wall time     15.89 sec
E1 = -4077.7826460808037  Ecoul = 1883.8984651580497  Exc = -124.5463684067635
nelec by numeric integration = 145.99999619207048
    CPU time for vxc     37.69 sec, wall time     15.77 sec
E1 = -4077.7826460808037  Ecoul = 1883.89846515805  Exc = -124.54636840676349
