System: uname_result(system='Linux', node='cosmopc18', release='5.15.0-97-generic', version='#107-Ubuntu SMP Wed Feb 7 13:26:48 UTC 2024', machine='x86_64')  Threads 4
Python 3.11.8 (main, Feb 26 2024, 21:39:34) [GCC 11.2.0]
numpy 1.26.4  scipy 1.11.4
Date: Tue Apr  9 16:44:12 2024
PySCF version 2.3.0
PySCF path  /home/saade/miniconda3/envs/tutorial/lib/python3.11/site-packages/pyscf

[ENV] PYSCFAD_BACKEND torch
[CONFIG] conf_file None
[INPUT] verbose = 5
[INPUT] max_memory = 4000 
[INPUT] num. atoms = 36
[INPUT] num. electrons = 146
[INPUT] charge = 0
[INPUT] spin (= nelec alpha-beta = 2S) = 0
[INPUT] symmetry False subgroup None
[INPUT] Mole.unit = angstrom
[INPUT] Symbol           X                Y                Z      unit          X                Y                Z       unit  Magmom
[INPUT]  1 C     -0.062770000000   3.604360000000   0.711693000000 AA   -0.118618108839   6.811253254337   1.344904854770 Bohr   0.0
[INPUT]  2 C     -0.144264000000   3.566265000000  -0.673798000000 AA   -0.272619449634   6.739264137622  -1.273293683280 Bohr   0.0
[INPUT]  3 C      0.019916000000   4.867086000000   1.343896000000 AA    0.037635785497   9.197459564705   2.539595379898 Bohr   0.0
[INPUT]  4 C     -0.065601000000   2.647069000000   1.429121000000 AA   -0.123967923498   5.002235442826   2.700647288865 Bohr   0.0
[INPUT]  5 C     -0.152770000000   4.929002000000  -1.341668000000 AA   -0.288693460050   9.314463847433  -2.535385070093 Bohr   0.0
[INPUT]  6 C     -0.040969000000   2.514010000000  -1.437551000000 AA   -0.077420189597   4.750790374418  -2.716577680095 Bohr   0.0
[INPUT]  7 C     -0.137011000000   6.083551000000  -0.553839000000 AA   -0.258913266053  11.496245254824  -1.046604027103 Bohr   0.0
[INPUT]  8 C     -0.112342000000   6.137288000000   0.779099000000 AA   -0.212295612286  11.597793467580   1.472283733923 Bohr   0.0
[INPUT]  9 C     -0.060677000000   1.255730000000   0.726771000000 AA   -0.114662912060   2.372985786400   1.373398145276 Bohr   0.0
[INPUT] 10 C     -0.094022000000   1.211193000000  -0.568221000000 AA   -0.177675829684   2.288823053990  -1.073782068226 Bohr   0.0
[INPUT] 11 C      0.053072000000   0.064430000000   1.492531000000 AA    0.100291544883   0.121755054206   2.820474822423 Bohr   0.0
[INPUT] 12 C     -0.057487000000  -0.076603000000  -1.552833000000 AA   -0.108634685723  -0.144758690320  -2.934429087187 Bohr   0.0
[INPUT] 13 C     -0.183232000000  -1.343150000000   0.777438000000 AA   -0.346258297256  -2.538185644210   1.469144898830 Bohr   0.0
[INPUT] 14 C     -0.146283000000  -1.180303000000  -0.790205000000 AA   -0.276434806680  -2.230449414003  -1.493271032262 Bohr   0.0
[INPUT] 15 C     -0.105250000000  -2.525079000000   1.414727000000 AA   -0.198893674610  -4.771707752891   2.673446571028 Bohr   0.0
[INPUT] 16 C     -0.139959000000  -2.207575000000  -1.455090000000 AA   -0.264484178668  -4.171712149437  -2.749721586593 Bohr   0.0
[INPUT] 17 C     -0.006263000000  -3.543613000000   0.735788000000 AA   -0.011835354718  -6.696458061448   1.390437805741 Bohr   0.0
[INPUT] 18 C      0.001759000000  -3.587787000000  -0.642274000000 AA    0.003324028253  -6.779934823275  -1.213721956929 Bohr   0.0
[INPUT] 19 C     -0.031983000000  -5.108384000000   1.404323000000 AA   -0.060439110642  -9.653446699110   2.653785860428 Bohr   0.0
[INPUT] 20 C      0.069841000000  -4.879695000000  -1.618611000000 AA    0.131980362266  -9.221287121410  -3.058731492208 Bohr   0.0
[INPUT] 21 C      0.109705000000  -6.004494000000   0.690620000000 AA    0.207312404495 -11.346849176594   1.305082656147 Bohr   0.0
[INPUT] 22 C     -0.143541000000  -6.050386000000  -0.599543000000 AA   -0.271253177646 -11.433572487903  -1.132972069900 Bohr   0.0
[INPUT] 23 H      0.040538000000   4.819360000000   2.372732000000 AA    0.076605717638   9.107270495684   4.483813646992 Bohr   0.0
[INPUT] 24 H     -0.146289000000   2.466586000000   2.336682000000 AA   -0.276446145036   4.661172002686   4.415689020201 Bohr   0.0
[INPUT] 25 H      0.174405000000   4.981139000000  -2.492279000000 AA    0.329577684755   9.412988498390  -4.709724736005 Bohr   0.0
[INPUT] 26 H     -0.057296000000   2.306550000000  -2.316994000000 AA   -0.108273748033   4.358747792616  -4.378484092261 Bohr   0.0
[INPUT] 27 H     -0.027426000000   7.004362000000  -1.214324000000 AA   -0.051827628692  13.236325857311  -2.294739786486 Bohr   0.0
[INPUT] 28 H     -0.101316000000   6.983513000000   1.190730000000 AA   -0.191459492036  13.196926957340   2.250153588303 Bohr   0.0
[INPUT] 29 H      0.017557000000  -0.034222000000   2.480252000000 AA    0.033177921569  -0.064670207435   4.686996999905 Bohr   0.0
[INPUT] 30 H      0.079869000000   0.036864000000  -2.524609000000 AA    0.150930535843   0.069662863856  -4.770819581612 Bohr   0.0
[INPUT] 31 H     -0.116242000000  -2.382047000000   2.423977000000 AA   -0.219665544172  -4.501416445842   4.580652662245 Bohr   0.0
[INPUT] 32 H     -0.165355000000  -2.438465000000  -2.469275000000 AA   -0.312475663327  -4.608031014338  -4.666253476235 Bohr   0.0
[INPUT] 33 H      0.034226000000  -4.809644000000   2.510811000000 AA    0.064677766339  -9.088909916658   4.744745140545 Bohr   0.0
[INPUT] 34 H     -0.082550000000  -5.052121000000  -2.534229000000 AA   -0.155996891583  -9.547125038164  -4.788998746930 Bohr   0.0
[INPUT] 35 H      0.012908000000  -7.295276000000   1.382991000000 AA    0.024392584816 -13.786073643113   2.613474222738 Bohr   0.0
[INPUT] 36 H      0.125002000000  -6.845843000000  -1.170440000000 AA    0.236219545023 -12.936768361771  -2.211811045236 Bohr   0.0
[INPUT] ---------------- BASIS SET ---------------- 
[INPUT] l, kappa, [nprim/nctr], expnt,             c_1 c_2 ...
[INPUT] H
[INPUT] 0    0    [3    /1   ]  3.42525091        0.15432897
                                0.62391373        0.53532814
                                0.1688554         0.44463454
[INPUT] C
[INPUT] 0    0    [3    /1   ]  71.616837         0.15432897
                                13.045096         0.53532814
                                3.5305122         0.44463454
[INPUT] 0    0    [3    /1   ]  2.9412494         -0.09996723
                                0.6834831         0.39951283
                                0.2222899         0.70011547
[INPUT] 1    0    [3    /1   ]  2.9412494         0.15591627
                                0.6834831         0.60768372
                                0.2222899         0.39195739

nuclear repulsion = 1499.7487652339
number of shells = 80
number of NR pGTOs = 372
number of NR cGTOs = 124
basis = sto3g
ecp = {}
CPU time:     61774.86
atom C rad-grids = 99, ang-grids = [ 50  50  50  50  50  50  50  50  50  50  50  50  50  50  50  50  50  50
  50  50  50  50  50  50  50  50  50  50  50  50  50  86  86  86  86  86
  86  86  86  86  86  86  86 434 434 434 434 434 434 434 434 434 590 590
 590 590 590 590 590 590 590 590 590 590 590 590 590 590 590 590 590 590
 590 590 590 590 590 590 590 434 434 434 434 434 434 434 434 434 434 434
 434 434 434 434 434 434 434 434 434]
atom H rad-grids = 99, ang-grids = [ 50  50  50  50  50  50  50  50  50  50  50  50  50  50  50  50  50  50
  50  50  50  50  50  50  50  50  50  50  86  86  86  86  86  86  86 434
 434 434 434 434 434 434 434 590 590 590 590 590 590 590 590 590 590 590
 590 590 590 590 590 590 590 590 590 590 590 590 590 590 590 434 434 434
 434 434 434 434 434 434 434 434 434 434 434 434 434 434 434 434 434 434
 434 434 434 434 434 434 434 434 434]
tot_boxes 5440, boxes in each direction [ 8 30 15]
Padding 0 grids
tot grids = 1157832


******** <class 'pyscf.dft.rks.RKS'> ********
method = RKS
initial guess = minao
damping factor = 0
level_shift factor = 0
DIIS = <class 'pyscf.scf.diis.CDIIS'>
diis_start_cycle = 1
diis_space = 8
SCF conv_tol = 1e-10
SCF conv_tol_grad = None
SCF max_cycles = 50
direct_scf = True
direct_scf_tol = 1e-13
chkfile to save SCF result = /home/saade/mlelec/tutorials/tmpoqmec2mb
max_memory 4000 MB (current use 639 MB)
XC library pyscf.dft.libxc version 6.1.0
    S. Lehtola, C. Steigemann, M. J.T. Oliveira, and M. A.L. Marques.,  SoftwareX 7, 1–5 (2018)
XC functionals = b3lypg
    P. J. Stephens, F. J. Devlin, C. F. Chabalowski, and M. J. Frisch.,  J. Phys. Chem. 98, 11623 (1994)
radial grids: 
    Treutler-Ahlrichs [JCP 102, 346 (1995); DOI:10.1063/1.469408] (M4) radial grids
    
becke partition: Becke, JCP 88, 2547 (1988); DOI:10.1063/1.454033
pruning grids: <function nwchem_prune at 0x7f9db5616ca0>
grids dens level: 3
symmetrized grids: False
atomic radii adjust function: <function treutler_atomic_radii_adjust at 0x7f9db5617380>
User specified grid scheme (99, 590)
small_rho_cutoff = 1e-07
Set gradient conv threshold to 1e-05
Initial guess from minao.
nelec by numeric integration = 145.2648441234591
    CPU time for vxc     37.63 sec, wall time     15.71 sec
E1 = -4098.806915632472  Ecoul = 1883.5643911137145  Exc = -126.24987785973023
init E= -841.743637144592
cond(S) = 23.871985793013526
    CPU time for initialize scf     47.27 sec, wall time     18.04 sec
  HOMO = -0.210274480913955  LUMO = -0.149825134681718
  mo_energy =
[-1.01436056e+01 -1.01420578e+01 -1.01403948e+01 -1.01351948e+01
 -1.01316777e+01 -1.01209219e+01 -1.01189473e+01 -1.01171051e+01
 -1.01142366e+01 -1.01110242e+01 -1.01107474e+01 -1.01102279e+01
 -1.01037715e+01 -1.00964498e+01 -1.00962733e+01 -1.00950083e+01
 -1.00920717e+01 -1.00917193e+01 -1.00889981e+01 -1.00771453e+01
 -1.00763150e+01 -1.00747387e+01 -1.10700218e+00 -1.08640341e+00
 -1.03285826e+00 -1.00223456e+00 -9.86274883e-01 -9.53281675e-01
 -9.38437187e-01 -8.71363960e-01 -8.50798331e-01 -8.34518844e-01
 -8.01692155e-01 -7.73163164e-01 -7.43031625e-01 -7.17388735e-01
 -7.12496229e-01 -7.02658526e-01 -6.73086538e-01 -6.44947181e-01
 -6.02134285e-01 -5.83091577e-01 -5.75359081e-01 -5.67404622e-01
 -5.63221211e-01 -5.42305985e-01 -5.35232715e-01 -5.19738497e-01
 -5.18339722e-01 -5.06440846e-01 -4.80770433e-01 -4.78357520e-01
 -4.70414676e-01 -4.64745369e-01 -4.45631676e-01 -4.41921205e-01
 -4.37142655e-01 -4.23281582e-01 -4.14755307e-01 -4.05263107e-01
 -3.87747949e-01 -3.80302900e-01 -3.69444578e-01 -3.61259235e-01
 -3.55419598e-01 -3.41869276e-01 -3.40410927e-01 -3.21770975e-01
 -2.87865695e-01 -2.69486500e-01 -2.58642276e-01 -2.38696939e-01
 -2.10274481e-01 -1.49825135e-01 -1.14513827e-01 -9.24489456e-02
 -5.04010716e-02 -1.94950728e-02 -3.38922042e-04  1.56535887e-02
  1.99869610e-02  6.11900647e-02  9.10492067e-02  1.10428086e-01
  1.25812315e-01  1.45499320e-01  1.55314693e-01  1.68718366e-01
  1.75012048e-01  1.91747472e-01  2.12001049e-01  2.12906799e-01
  2.34179046e-01  2.49379492e-01  2.80154846e-01  2.95983562e-01
  3.17528686e-01  3.26557707e-01  3.30634458e-01  3.41288487e-01
  3.65505931e-01  3.80388694e-01  3.92143836e-01  4.04338582e-01
  4.38874490e-01  4.51280128e-01  4.59451504e-01  4.69367090e-01
  4.82172219e-01  5.31437722e-01  5.37690557e-01  5.56268837e-01
  5.75618203e-01  5.95222602e-01  6.19837449e-01  6.40631783e-01
  6.52643633e-01  6.76122478e-01  6.89219147e-01  7.16947980e-01
  7.56097496e-01  7.94317103e-01  8.83690707e-01  9.09852009e-01]
nelec by numeric integration = 145.9999984569263
    CPU time for vxc     38.55 sec, wall time     15.89 sec
E1 = -4113.609461098258  Ecoul = 1903.190434358321  Exc = -124.89329693542123
cycle= 1 E= -835.563558441462  delta_E= 6.18  |g|= 0.289  |ddm|=  9.3
    CPU time for cycle= 1     38.93 sec, wall time     15.96 sec
  HOMO = -0.0924167728734123  LUMO = 0.00282667677663167
  mo_energy =
[-1.00479189e+01 -1.00334080e+01 -1.00228127e+01 -1.00161094e+01
 -1.00153963e+01 -1.00027329e+01 -9.99137966e+00 -9.99134379e+00
 -9.99033036e+00 -9.98890807e+00 -9.98790745e+00 -9.98056790e+00
 -9.97433201e+00 -9.97362324e+00 -9.97356093e+00 -9.97000059e+00
 -9.96984869e+00 -9.96825505e+00 -9.95923623e+00 -9.95835725e+00
 -9.95238586e+00 -9.93911504e+00 -8.41396715e-01 -8.28532659e-01
 -7.86391707e-01 -7.71529026e-01 -7.60475973e-01 -7.38619035e-01
 -7.30986364e-01 -6.98562668e-01 -6.69636387e-01 -6.58071320e-01
 -6.31479341e-01 -6.12520089e-01 -5.96563861e-01 -5.84169048e-01
 -5.68358447e-01 -5.59586884e-01 -5.41515382e-01 -5.14305902e-01
 -4.87932067e-01 -4.72780367e-01 -4.61190462e-01 -4.47878197e-01
 -4.47285339e-01 -4.31656032e-01 -4.22280414e-01 -4.07801037e-01
 -4.02696814e-01 -3.95458446e-01 -3.82696511e-01 -3.63516096e-01
 -3.58365699e-01 -3.46577257e-01 -3.42966532e-01 -3.34063126e-01
 -3.29422019e-01 -3.09310192e-01 -3.05908408e-01 -2.93308106e-01
 -2.79621040e-01 -2.69725102e-01 -2.65621659e-01 -2.56641136e-01
 -2.49989240e-01 -2.27600546e-01 -2.23946624e-01 -2.15045685e-01
 -1.89584084e-01 -1.74577964e-01 -1.49729077e-01 -1.27095513e-01
 -9.24167729e-02  2.82667678e-03  3.62390423e-02  5.64153123e-02
  8.86948040e-02  1.39520672e-01  1.48845619e-01  1.57149698e-01
  1.87725118e-01  2.23098399e-01  2.51639649e-01  2.68743986e-01
  2.77428494e-01  3.06521400e-01  3.16820861e-01  3.25529724e-01
  3.30675482e-01  3.41987416e-01  3.54461542e-01  3.68631999e-01
  3.88124631e-01  3.99114641e-01  4.30701084e-01  4.41991122e-01
  4.60386553e-01  4.73967155e-01  4.83058991e-01  5.02188306e-01
  5.20806682e-01  5.30676109e-01  5.44358337e-01  5.52934610e-01
  5.72552896e-01  5.88261752e-01  6.02797900e-01  6.15605350e-01
  6.33905341e-01  6.40766910e-01  6.89774774e-01  7.01964383e-01
  7.36662780e-01  7.44221711e-01  7.73597533e-01  7.98267815e-01
  8.25626177e-01  8.31522995e-01  8.46464833e-01  8.74126920e-01
  9.32554826e-01  9.67911634e-01  1.05538618e+00  1.10168771e+00]
nelec by numeric integration = 145.99999845055515
    CPU time for vxc     38.38 sec, wall time     15.85 sec
E1 = -4109.220171813189  Ecoul = 1898.6612331851784  Exc = -124.73934389008716
cycle= 2 E= -835.549517284202  delta_E= 0.014  |g|= 0.368  |ddm|= 0.94
    CPU time for cycle= 2     38.76 sec, wall time     15.91 sec
  HOMO = -0.103157843608457  LUMO = -0.007712329758724
  mo_energy =
[-1.00399561e+01 -1.00320977e+01 -1.00287949e+01 -1.00236253e+01
 -1.00190845e+01 -1.00182897e+01 -1.00165261e+01 -1.00151981e+01
 -1.00099768e+01 -1.00083285e+01 -1.00064594e+01 -1.00038566e+01
 -1.00022416e+01 -1.00002884e+01 -9.99829395e+00 -9.99500501e+00
 -9.99242633e+00 -9.99124786e+00 -9.99061384e+00 -9.98396355e+00
 -9.98292509e+00 -9.95720243e+00 -8.54948802e-01 -8.43330722e-01
 -8.17005080e-01 -7.88756360e-01 -7.77384826e-01 -7.50813197e-01
 -7.40697987e-01 -6.95847886e-01 -6.79640334e-01 -6.67337216e-01
 -6.40333065e-01 -6.23070210e-01 -6.05786675e-01 -5.89083883e-01
 -5.76284235e-01 -5.68688223e-01 -5.44391126e-01 -5.23892058e-01
 -4.95382861e-01 -4.77946735e-01 -4.70376828e-01 -4.67101269e-01
 -4.56331124e-01 -4.37576893e-01 -4.31608253e-01 -4.21621615e-01
 -4.15629412e-01 -4.10830249e-01 -3.88630033e-01 -3.77367179e-01
 -3.68321985e-01 -3.56812546e-01 -3.52449825e-01 -3.44401327e-01
 -3.41378109e-01 -3.23556817e-01 -3.17630451e-01 -3.14576823e-01
 -2.86251133e-01 -2.84178019e-01 -2.72981719e-01 -2.67047687e-01
 -2.62567866e-01 -2.37965087e-01 -2.35822910e-01 -2.25893763e-01
 -1.92528146e-01 -1.77831202e-01 -1.58987474e-01 -1.38155412e-01
 -1.03157844e-01 -7.71232976e-03  2.54711127e-02  4.81250259e-02
  9.23806352e-02  1.28526132e-01  1.30228768e-01  1.46840519e-01
  1.68291321e-01  2.05699319e-01  2.34713759e-01  2.61478069e-01
  2.78021518e-01  2.94559519e-01  3.04778118e-01  3.18995675e-01
  3.24845045e-01  3.37175216e-01  3.46089120e-01  3.61692396e-01
  3.75337683e-01  3.82214818e-01  4.20207642e-01  4.36613310e-01
  4.57220575e-01  4.65991587e-01  4.71290138e-01  4.92487818e-01
  5.11095222e-01  5.23486221e-01  5.35619381e-01  5.43212089e-01
  5.59098431e-01  5.80714395e-01  5.95379324e-01  6.06203862e-01
  6.26115560e-01  6.60522995e-01  6.80644749e-01  6.95708321e-01
  7.27179732e-01  7.34747373e-01  7.65947496e-01  7.80757768e-01
  7.88213686e-01  8.21679758e-01  8.34950930e-01  8.62272684e-01
  9.09165002e-01  9.54826632e-01  1.03773502e+00  1.04373057e+00]
nelec by numeric integration = 145.99999847113014
    CPU time for vxc     38.48 sec, wall time     15.93 sec
E1 = -4110.212880188811  Ecoul = 1899.6646966016892  Exc = -124.78108342809952
cycle= 3 E= -835.580501781325  delta_E= -0.031  |g|= 0.215  |ddm|= 0.757
    CPU time for cycle= 3     39.04 sec, wall time     16.02 sec
  HOMO = -0.112559465579529  LUMO = -0.0177781523241067
  mo_energy =
[-10.04056372 -10.04011229 -10.03427109 -10.02633706 -10.02609378
 -10.02299538 -10.02055913 -10.02049142 -10.01885935 -10.01670331
 -10.01485434 -10.01446235 -10.01376045 -10.01242967 -10.01109463
 -10.01059837 -10.00785744 -10.00779579 -10.00181127 -10.00068557
  -9.99622812  -9.99278341  -0.86331101  -0.85234241  -0.81703787
  -0.79412414  -0.78721194  -0.7597846   -0.74823958  -0.70354535
  -0.6842328   -0.67322065  -0.64815036  -0.63012075  -0.61210022
  -0.59479253  -0.58279607  -0.57695819  -0.5547676   -0.52922501
  -0.50080268  -0.48371547  -0.47569448  -0.46684576  -0.46456905
  -0.44400652  -0.44024128  -0.42380533  -0.41958254  -0.41713589
  -0.39322192  -0.38294553  -0.37582494  -0.36476061  -0.35779356
  -0.35116052  -0.34661436  -0.32735894  -0.32290877  -0.31953215
  -0.29210345  -0.2898357   -0.27968179  -0.27694377  -0.26893521
  -0.2466364   -0.24456426  -0.23340244  -0.1996275   -0.18629185
  -0.16440922  -0.14462971  -0.11255947  -0.01777815   0.01852025
   0.04028495   0.08106314   0.12032249   0.13782458   0.13988335
   0.15985092   0.20086882   0.23051276   0.25302652   0.2661186
   0.28711364   0.2968906    0.31096852   0.31426463   0.33284422
   0.33745844   0.35267672   0.37104659   0.38269504   0.41336791
   0.42963061   0.44700213   0.45973827   0.46759253   0.48593895
   0.50542658   0.51775371   0.52867018   0.53853093   0.56208878
   0.57496652   0.58994713   0.60192545   0.61912483   0.64830226
   0.67315404   0.68761692   0.71525798   0.72721726   0.75600525
   0.77927161   0.78723049   0.8123957    0.82697403   0.85277145
   0.90004186   0.9361438    1.02934631   1.05231124]
nelec by numeric integration = 145.99999845773664
    CPU time for vxc     38.15 sec, wall time     15.81 sec
E1 = -4110.922599391103  Ecoul = 1900.3689214534527  Exc = -124.79071852249228
cycle= 4 E= -835.595631226247  delta_E= -0.0151  |g|= 0.0657  |ddm|= 0.377
    CPU time for cycle= 4     38.61 sec, wall time     15.88 sec
  HOMO = -0.111440935627429  LUMO = -0.0163974956448846
  mo_energy =
[-10.04258376 -10.03028733 -10.02951089 -10.02871754 -10.02605288
 -10.02560251 -10.02479103 -10.02396068 -10.02254645 -10.01667236
 -10.01513858 -10.01441991 -10.01420611 -10.01106181 -10.01084481
 -10.00945373 -10.00915187 -10.00264566 -10.00200784 -10.00164586
  -9.99909761  -9.99660464  -0.86415719  -0.85099333  -0.81474276
  -0.79502446  -0.78519287  -0.75964765  -0.74990049  -0.70362775
  -0.68608178  -0.67297903  -0.64690534  -0.63035442  -0.61209418
  -0.59507681  -0.58301831  -0.57667929  -0.55257525  -0.52917464
  -0.50137751  -0.48363013  -0.47485839  -0.46654532  -0.46347008
  -0.44420085  -0.43924185  -0.42477516  -0.41908481  -0.41525339
  -0.39380156  -0.38428353  -0.37665583  -0.36445188  -0.35847601
  -0.35214868  -0.34700013  -0.32748211  -0.32184311  -0.31952144
  -0.29218716  -0.29048021  -0.2800965   -0.27559428  -0.27048745
  -0.24691658  -0.24500695  -0.23348771  -0.20035007  -0.18672248
  -0.16591532  -0.14526126  -0.11144094  -0.0163975    0.01779272
   0.03942067   0.07934419   0.11959866   0.13707145   0.13877608
   0.1623318    0.20054217   0.23105285   0.25430858   0.26568092
   0.28708911   0.29638633   0.31070928   0.31359434   0.33266703
   0.33685663   0.35419255   0.3709011    0.38188153   0.41454644
   0.43043674   0.44995812   0.45939985   0.46684688   0.48480312
   0.50401019   0.51702253   0.52808233   0.53697013   0.56259988
   0.5765094    0.58939707   0.60078902   0.61730258   0.64893819
   0.67316266   0.68562617   0.71834338   0.72666147   0.75558873
   0.77937086   0.7867683    0.8130024    0.82598321   0.85333952
   0.90096533   0.94220034   1.02793091   1.05332134]
nelec by numeric integration = 145.9999984584082
    CPU time for vxc     37.47 sec, wall time     15.66 sec
E1 = -4110.894392567522  Ecoul = 1900.3384554223944  Exc = -124.78932781887401
cycle= 5 E= -835.596499730106  delta_E= -0.000869  |g|= 0.0432  |ddm|= 0.162
    CPU time for cycle= 5     37.90 sec, wall time     15.74 sec
  HOMO = -0.111522121179504  LUMO = -0.0164716233527419
  mo_energy =
[-10.04117642 -10.03119532 -10.02891193 -10.02696747 -10.02479963
 -10.02385278 -10.02217352 -10.01963437 -10.01910086 -10.01510558
 -10.01467282 -10.01387159 -10.01349611 -10.01133583 -10.00984868
 -10.0079162  -10.00777638 -10.00456807 -10.00311289 -10.00117236
 -10.00104429  -9.99613635  -0.86293018  -0.85018778  -0.81487099
  -0.7940084   -0.78505015  -0.75891774  -0.74841002  -0.70279897
  -0.68479827  -0.67265225  -0.64686026  -0.62973106  -0.6113616
  -0.59416864  -0.58228405  -0.57577379  -0.55254712  -0.52853776
  -0.50060499  -0.48291611  -0.4744342   -0.46659006  -0.46317602
  -0.44351849  -0.43889332  -0.42395304  -0.41886928  -0.4157299
  -0.39283572  -0.38310965  -0.37569524  -0.36366116  -0.35783711
  -0.35101992  -0.34638902  -0.32687852  -0.32172536  -0.31920422
  -0.29179785  -0.28975841  -0.27947648  -0.27541826  -0.26929962
  -0.24614544  -0.24438524  -0.23323971  -0.19975306  -0.18642974
  -0.16513181  -0.14473916  -0.11152212  -0.01647162   0.01854475
   0.04026199   0.08056373   0.12032121   0.13765203   0.13898323
   0.16233693   0.20135305   0.2314527    0.25417993   0.26673939
   0.28792214   0.29740471   0.31155063   0.31444014   0.33305132
   0.33774683   0.35363636   0.37176647   0.38268701   0.41443851
   0.43077148   0.44979702   0.45996881   0.46740891   0.48562112
   0.50553667   0.51800166   0.52878052   0.53871003   0.56207304
   0.5757993    0.5901327    0.60201373   0.61898841   0.64989914
   0.67351446   0.68759359   0.71790791   0.72730385   0.75668685
   0.77964849   0.78709038   0.81310323   0.82705297   0.85368125
   0.90267669   0.94164121   1.02965341   1.05420185]
nelec by numeric integration = 145.99999845942008
    CPU time for vxc     37.79 sec, wall time     15.69 sec
E1 = -4110.815477674081  Ecoul = 1900.2573224392909  Exc = -124.78778017633032
cycle= 6 E= -835.597170177225  delta_E= -0.00067  |g|= 0.0126  |ddm|= 0.0868
    CPU time for cycle= 6     38.17 sec, wall time     15.75 sec
  HOMO = -0.111056608085946  LUMO = -0.0159720959268426
  mo_energy =
[-10.0407362  -10.0305996  -10.02791874 -10.02778207 -10.02414139
 -10.02270543 -10.02249891 -10.01960317 -10.01862305 -10.01441405
 -10.013231   -10.01295931 -10.01246352 -10.00844958 -10.00830193
 -10.00821436 -10.00744149 -10.00508001 -10.00470789 -10.00042449
  -9.99953581  -9.99476249  -0.86261931  -0.84958803  -0.81452591
  -0.79360689  -0.78452565  -0.7585205   -0.74812964  -0.70233992
  -0.6843228   -0.67220791  -0.64636774  -0.62933998  -0.61115642
  -0.59392929  -0.58190037  -0.5753875   -0.55218736  -0.52818437
  -0.50031373  -0.48250505  -0.47413197  -0.46629823  -0.46283696
  -0.44329424  -0.43860482  -0.42357088  -0.41863184  -0.41518736
  -0.39247946  -0.38283203  -0.37538848  -0.3631958   -0.35759546
  -0.35073129  -0.34602671  -0.32659939  -0.3213937   -0.31889572
  -0.29136413  -0.28945728  -0.27903141  -0.27497502  -0.26892293
  -0.245799    -0.24387945  -0.23277797  -0.19934818  -0.18600905
  -0.16467433  -0.14429591  -0.11105661  -0.0159721    0.01901276
   0.04068132   0.08129311   0.12085248   0.1376412    0.13917625
   0.16285676   0.20162936   0.23178981   0.25483136   0.26732346
   0.28831086   0.29783798   0.31196306   0.31504883   0.33340575
   0.33819769   0.35446999   0.37213156   0.38280636   0.41488931
   0.43104749   0.45014733   0.46033239   0.46781093   0.48608041
   0.50574962   0.51818215   0.52940033   0.53874196   0.56255859
   0.57626135   0.59039367   0.60208151   0.61927638   0.6501794
   0.67402901   0.68783187   0.71843631   0.72784163   0.75737145
   0.78028901   0.78741013   0.81369498   0.82739283   0.85427748
   0.90306907   0.94213208   1.02976141   1.05412197]
nelec by numeric integration = 145.99999845943572
    CPU time for vxc     38.26 sec, wall time     15.77 sec
E1 = -4110.7881009497705  Ecoul = 1900.2290678805832  Exc = -124.78695400803053
cycle= 7 E= -835.597221843322  delta_E= -5.17e-05  |g|= 0.00362  |ddm|= 0.0216
    CPU time for cycle= 7     38.92 sec, wall time     15.87 sec
  HOMO = -0.110980434560919  LUMO = -0.0158669185957682
  mo_energy =
[-10.04047683 -10.03077032 -10.02828785 -10.02783718 -10.02366608
 -10.02315638 -10.0228507  -10.01917099 -10.01900242 -10.01460786
 -10.01349877 -10.01300646 -10.0124474  -10.00856845 -10.00810309
 -10.00756707 -10.00743743 -10.00479754 -10.00408081 -10.00046186
  -9.99942113  -9.99517291  -0.86241513  -0.84976621  -0.81463684
  -0.79358253  -0.78461452  -0.75840292  -0.74799335  -0.70245857
  -0.68437312  -0.67219259  -0.64633464  -0.62926222  -0.61104769
  -0.59399497  -0.58187084  -0.57545368  -0.55217316  -0.52820077
  -0.5002527   -0.48261248  -0.47406833  -0.46638289  -0.46280636
  -0.44317574  -0.43849216  -0.4235554   -0.41868704  -0.41524301
  -0.3926141   -0.38291038  -0.37524962  -0.36329844  -0.35750022
  -0.35068169  -0.34605599  -0.32651021  -0.32138613  -0.31892485
  -0.29142938  -0.2894128   -0.27909132  -0.2750012   -0.268979
  -0.24569143  -0.2438022   -0.23272048  -0.19944089  -0.18612061
  -0.16468538  -0.1442823   -0.11098043  -0.01586692   0.01904058
   0.04073512   0.08115436   0.12092996   0.13763002   0.13925199
   0.16272717   0.2016638    0.23171506   0.25490411   0.26718961
   0.28836641   0.29778467   0.31195754   0.31496409   0.33336433
   0.33822645   0.35446466   0.37219529   0.38271681   0.41481371
   0.43108003   0.45008845   0.4604086    0.46775417   0.48623499
   0.50576084   0.51830697   0.52935252   0.5388178    0.56252082
   0.57629446   0.59049971   0.60226384   0.61931013   0.65009582
   0.67411873   0.68781927   0.71857798   0.72785245   0.75721735
   0.78034507   0.78725459   0.81380152   0.82756592   0.8543329
   0.9027379    0.94203145   1.03006255   1.05384007]
nelec by numeric integration = 145.9999984594918
    CPU time for vxc     37.92 sec, wall time     15.69 sec
E1 = -4110.791861023467  Ecoul = 1900.2329035375328  Exc = -124.78703440233858
cycle= 8 E= -835.597226654377  delta_E= -4.81e-06  |g|= 0.000814  |ddm|= 0.00661
    CPU time for cycle= 8     38.26 sec, wall time     15.75 sec
  HOMO = -0.111011460862605  LUMO = -0.0158878931688246
  mo_energy =
[-10.04060215 -10.03089746 -10.02826637 -10.02787496 -10.02373104
 -10.02301314 -10.02282768 -10.01918447 -10.0191452  -10.01456511
 -10.01346547 -10.01306664 -10.01242697 -10.00850807 -10.00819502
 -10.00774294 -10.00741062 -10.00476171 -10.00409779 -10.00056455
  -9.99940101  -9.99505051  -0.86248429  -0.84976495  -0.81463092
  -0.7936071   -0.78463138  -0.75844521  -0.74802346  -0.70244338
  -0.68437551  -0.67221062  -0.64635831  -0.62930147  -0.61108019
  -0.59399501  -0.5818963   -0.57546365  -0.55220169  -0.52821792
  -0.50028705  -0.48261567  -0.47409445  -0.46637787  -0.46282629
  -0.44320598  -0.43854516  -0.42357747  -0.41867276  -0.41525943
  -0.39258948  -0.38291398  -0.37529873  -0.36329824  -0.35753149
  -0.35070811  -0.34605618  -0.32654561  -0.32140409  -0.31892735
  -0.29142589  -0.28942922  -0.27909076  -0.27502022  -0.26897783
  -0.24572883  -0.24382801  -0.23273596  -0.19941844  -0.1860862
  -0.16469185  -0.14429999  -0.11101146  -0.01588789   0.01903474
   0.04072666   0.08115712   0.12090374   0.13770622   0.13924163
   0.16272503   0.2016471    0.23172008   0.25486202   0.26719997
   0.28834379   0.29777689   0.31194077   0.31497933   0.33336806
   0.33821392   0.3544379    0.37215858   0.38272218   0.41482431
   0.43106806   0.45008101   0.46038182   0.46777056   0.48617828
   0.50574723   0.51826261   0.52934495   0.53879989   0.56252231
   0.57627084   0.59045077   0.60220414   0.61927822   0.65009344
   0.67408041   0.68781006   0.71851837   0.72781861   0.75721237
   0.78029678   0.78727886   0.81375602   0.82750814   0.85430856
   0.90278276   0.94201569   1.02997284   1.05388474]
nelec by numeric integration = 145.9999984596137
    CPU time for vxc     37.49 sec, wall time     15.54 sec
E1 = -4110.794370941567  Ecoul = 1900.235450850275  Exc = -124.78707201693311
cycle= 9 E= -835.597226874329  delta_E= -2.2e-07  |g|= 0.000325  |ddm|= 0.00158
    CPU time for cycle= 9     38.11 sec, wall time     15.63 sec
  HOMO = -0.111023387411097  LUMO = -0.0158946312726244
  mo_energy =
[-10.04059247 -10.03087215 -10.02819181 -10.02789674 -10.02375972
 -10.02297697 -10.02279763 -10.01915605 -10.01914337 -10.01455232
 -10.01344508 -10.01308547 -10.01244971 -10.00857366 -10.00819776
 -10.00770113 -10.00738936 -10.00478845 -10.00417057 -10.00054023
  -9.99941263  -9.99514169  -0.86249283  -0.84975275  -0.81461581
  -0.7936079   -0.78462468  -0.75846035  -0.74804287  -0.70243195
  -0.68437891  -0.67221413  -0.64636384  -0.62930735  -0.61109468
  -0.59398948  -0.58190418  -0.57545923  -0.55220523  -0.52822178
  -0.50029346  -0.48261117  -0.47410703  -0.46637297  -0.46283744
  -0.44322391  -0.43854465  -0.42357835  -0.41866246  -0.41525583
  -0.39257825  -0.38290768  -0.37530812  -0.36329343  -0.35753849
  -0.35071748  -0.34605722  -0.32654635  -0.32139954  -0.31892706
  -0.29142114  -0.2894304   -0.27909271  -0.27501677  -0.26897202
  -0.24573863  -0.24384995  -0.23274556  -0.19940826  -0.18607338
  -0.16469532  -0.14430794  -0.11102339  -0.01589463   0.01903571
   0.04072132   0.08116763   0.12088365   0.1377295    0.13924223
   0.16273543   0.20164387   0.23172964   0.25486561   0.26721068
   0.28833852   0.29777983   0.31193728   0.31498636   0.33335037
   0.33819858   0.35443407   0.37215407   0.38272659   0.41482798
   0.43106176   0.45007976   0.4603709    0.46777867   0.48616952
   0.50574114   0.51825528   0.52932773   0.53878996   0.56252464
   0.5762639    0.59044508   0.60219759   0.61927496   0.65009853
   0.67406649   0.68780752   0.7185079    0.72781031   0.75722204
   0.78029506   0.78729831   0.81374319   0.82749634   0.85428289
   0.90280025   0.94202246   1.02996594   1.05391712]
nelec by numeric integration = 145.99999845955307
    CPU time for vxc     38.13 sec, wall time     15.75 sec
E1 = -4110.794089951899  Ecoul = 1900.2351688530653  Exc = -124.78707103692719
cycle= 10 E= -835.597226901865  delta_E= -2.75e-08  |g|= 0.000164  |ddm|= 0.00066
    CPU time for cycle= 10     38.54 sec, wall time     15.82 sec
  HOMO = -0.111021300770578  LUMO = -0.0158917410138131
  mo_energy =
[-10.0405922  -10.03085728 -10.02819858 -10.02788514 -10.02374924
 -10.02300543 -10.02282915 -10.01916698 -10.01915386 -10.01456162
 -10.0134599  -10.01307016 -10.01245786 -10.00855549 -10.00818941
 -10.00772949 -10.00739576 -10.00479283 -10.00414957 -10.00054542
  -9.99942085  -9.99510937  -0.86249111  -0.84976075  -0.81462036
  -0.79361033  -0.78462834  -0.75845563  -0.7480369   -0.7024374
  -0.68437971  -0.67221403  -0.64636202  -0.6293077   -0.61108935
  -0.59399287  -0.58190169  -0.57546407  -0.55220278  -0.52822221
  -0.5002935   -0.48261487  -0.47410305  -0.46637549  -0.46283443
  -0.4432163   -0.43854686  -0.42357911  -0.41866719  -0.41525682
  -0.39258546  -0.38291089  -0.37530573  -0.36329685  -0.35753755
  -0.35071293  -0.34605743  -0.32654655  -0.3214007   -0.31892722
  -0.29142451  -0.28943146  -0.27909342  -0.27501831  -0.26897629
  -0.24573561  -0.24384345  -0.23274239  -0.19941487  -0.18608231
  -0.16469638  -0.14430865  -0.1110213   -0.01589174   0.0190334
   0.04072177   0.0811624    0.12088891   0.13771811   0.13924057
   0.16273066   0.2016442    0.23172589   0.25486705   0.26720517
   0.28833913   0.2977754    0.31193758   0.31498158   0.33335901
   0.33820437   0.35443849   0.3721556    0.38272449   0.41482524
   0.43106458   0.45007859   0.46037318   0.46777284   0.48616935
   0.50574072   0.51825616   0.52933306   0.53879202   0.56252273
   0.57626729   0.59044658   0.60219533   0.61927531   0.65009686
   0.67406934   0.68780541   0.71851546   0.72781092   0.75721581
   0.78029332   0.78729072   0.81374763   0.82750035   0.85429105
   0.90278498   0.94202006   1.0299662    1.05390711]
nelec by numeric integration = 145.9999984595726
    CPU time for vxc     38.13 sec, wall time     15.85 sec
E1 = -4110.794189108121  Ecoul = 1900.2352726198178  Exc = -124.78707565680796
cycle= 11 E= -835.597226911215  delta_E= -9.35e-09  |g|= 4.99e-05  |ddm|= 0.000289
    CPU time for cycle= 11     38.65 sec, wall time     15.93 sec
  HOMO = -0.111020720636595  LUMO = -0.0158903301420929
  mo_energy =
[-10.04059074 -10.03085921 -10.02821477 -10.02788671 -10.02375176
 -10.02300234 -10.0228261  -10.01916411 -10.01915002 -10.01456643
 -10.01344976 -10.01307706 -10.01245454 -10.00855471 -10.00818735
 -10.00772377 -10.00739365 -10.0047856  -10.00415278 -10.000543
  -9.99942568  -9.99511304  -0.86249044  -0.84975824  -0.8146232
  -0.79361078  -0.784627    -0.75845492  -0.74803714  -0.70243639
  -0.68437978  -0.67221334  -0.64636081  -0.62930671  -0.61108964
  -0.59399291  -0.58190134  -0.57546153  -0.5522009   -0.52822076
  -0.5002923   -0.48261313  -0.47410199  -0.46637598  -0.46283322
  -0.44321628  -0.43854465  -0.42357911  -0.41866806  -0.41525599
  -0.39258533  -0.38291057  -0.37530524  -0.36329581  -0.35753714
  -0.35071342  -0.34605807  -0.32654693  -0.32140168  -0.31892886
  -0.29142426  -0.28943198  -0.27909278  -0.27501725  -0.26897607
  -0.24573556  -0.24384337  -0.23274312  -0.1994148   -0.18608211
  -0.16469692  -0.14430833  -0.11102072  -0.01589033   0.01903395
   0.04072167   0.08116423   0.12088937   0.13771263   0.13923947
   0.1627317    0.20164309   0.23172452   0.25486688   0.26720694
   0.28833913   0.29777667   0.31193822   0.31498243   0.33335826
   0.33820414   0.3544384    0.37215632   0.38272407   0.41482617
   0.43106493   0.45008203   0.46037368   0.46777217   0.4861707
   0.50574194   0.51825728   0.52933377   0.53879286   0.56252252
   0.57626813   0.59044779   0.60219713   0.61927592   0.65009828
   0.67407075   0.6878071    0.71851543   0.72781226   0.75721816
   0.78029502   0.78728547   0.813748     0.82750063   0.85429152
   0.90278832   0.94202348   1.02996752   1.05390046]
nelec by numeric integration = 145.99999845957564
    CPU time for vxc     38.35 sec, wall time     15.84 sec
E1 = -4110.794128706867  Ecoul = 1900.2352129982141  Exc = -124.78707643731617
cycle= 12 E= -835.597226912073  delta_E= -8.58e-10  |g|= 2.19e-05  |ddm|= 0.000106
    CPU time for cycle= 12     38.87 sec, wall time     15.93 sec
  HOMO = -0.111019625448244  LUMO = -0.0158891518597718
  mo_energy =
[-10.04058968 -10.03085727 -10.02820815 -10.02788512 -10.02374899
 -10.02299892 -10.02282271 -10.01916236 -10.01914781 -10.01456423
 -10.01345562 -10.01307104 -10.01245137 -10.00855114 -10.00818647
 -10.00772196 -10.00739355 -10.00478305 -10.00415222 -10.00054157
  -9.99942144  -9.99511027  -0.8624887   -0.84975693  -0.81462087
  -0.79360869  -0.78462546  -0.75845326  -0.74803547  -0.70243602
  -0.68437826  -0.67221214  -0.6463598   -0.62930541  -0.6110883
  -0.59399201  -0.58190003  -0.57546077  -0.55220024  -0.52821994
  -0.50029133  -0.48261255  -0.47410096  -0.46637515  -0.46283209
  -0.44321519  -0.43854356  -0.42357777  -0.41866701  -0.41525485
  -0.39258429  -0.38290986  -0.37530378  -0.36329454  -0.35753611
  -0.35071191  -0.34605675  -0.32654517  -0.32140004  -0.31892718
  -0.29142322  -0.28943025  -0.27909189  -0.27501594  -0.26897497
  -0.24573396  -0.24384161  -0.23274137  -0.19941396  -0.18608151
  -0.16469523  -0.14430693  -0.11101963  -0.01588915   0.01903549
   0.04072321   0.0811647    0.12089109   0.13771443   0.13924101
   0.1627332    0.20164509   0.23172629   0.25486867   0.26720729
   0.28834079   0.29777787   0.31193951   0.31498329   0.33335905
   0.33820562   0.35444008   0.37215746   0.3827245    0.4148267
   0.43106576   0.45008219   0.46037494   0.46777351   0.48617212
   0.50574268   0.51825817   0.52933506   0.53879358   0.56252336
   0.57626876   0.59044863   0.60219817   0.61927733   0.65009852
   0.67407205   0.68780783   0.71851723   0.7278135    0.75721927
   0.7802965    0.78728842   0.81374989   0.82750229   0.85429346
   0.90278983   0.94202485   1.02996923   1.05390356]
nelec by numeric integration = 145.99999845957868
    CPU time for vxc     37.84 sec, wall time     15.70 sec
E1 = -4110.794004934987  Ecoul = 1900.2350853770022  Exc = -124.78707258812587
cycle= 13 E= -835.597226912215  delta_E= -1.42e-10  |g|= 9.81e-06  |ddm|= 3.98e-05
    CPU time for cycle= 13     38.25 sec, wall time     15.77 sec
  HOMO = -0.111020191640155  LUMO = -0.0158896662728751
  mo_energy =
[-10.04059047 -10.03085781 -10.0282077  -10.02788591 -10.02375081
 -10.02300126 -10.02282501 -10.01916364 -10.01914918 -10.01456305
 -10.01345321 -10.01307397 -10.01245314 -10.00855294 -10.00818625
 -10.00772305 -10.00739514 -10.00478445 -10.00415268 -10.0005424
  -9.99942144  -9.99511118  -0.86248977  -0.84975761  -0.81462089
  -0.79360954  -0.78462612  -0.75845424  -0.74803649  -0.70243604
  -0.68437907  -0.67221267  -0.64636031  -0.62930615  -0.61108904
  -0.59399227  -0.58190077  -0.57546138  -0.5522008   -0.52822048
  -0.50029199  -0.48261292  -0.47410165  -0.46637512  -0.46283278
  -0.44321589  -0.43854431  -0.42357838  -0.41866705  -0.41525523
  -0.39258448  -0.38291015  -0.37530467  -0.3632952   -0.3575367
  -0.35071278  -0.34605722  -0.32654597  -0.32140043  -0.31892758
  -0.29142358  -0.28943096  -0.27909236  -0.27501656  -0.26897545
  -0.24573485  -0.24384261  -0.23274216  -0.19941413  -0.18608152
  -0.16469602  -0.14430763  -0.11102019  -0.01588967   0.01903488
   0.04072246   0.08116423   0.12089013   0.13771487   0.13924052
   0.16273268   0.20164434   0.231726     0.25486783   0.26720698
   0.28833999   0.29777727   0.31193876   0.31498293   0.33335856
   0.33820471   0.35443931   0.37215673   0.38272457   0.41482667
   0.43106526   0.45008185   0.46037421   0.46777327   0.48617123
   0.50574211   0.51825747   0.52933437   0.53879299   0.56252331
   0.57626856   0.59044797   0.60219739   0.61927627   0.6500982
   0.67407123   0.68780713   0.71851628   0.72781272   0.75721849
   0.78029564   0.78728851   0.81374886   0.82750129   0.85429234
   0.90278902   0.9420241    1.02996814   1.05390414]
nelec by numeric integration = 145.99999845957706
    CPU time for vxc     37.48 sec, wall time     15.66 sec
E1 = -4110.794074932863  Ecoul = 1900.235156704741  Exc = -124.78707391801208
cycle= 14 E= -835.597226912238  delta_E= -2.27e-11  |g|= 6.87e-06  |ddm|= 2.07e-05
    CPU time for cycle= 14     37.94 sec, wall time     15.73 sec
  HOMO = -0.111020243291236  LUMO = -0.0158896705367922
  mo_energy =
[-10.04059055 -10.03085813 -10.02821057 -10.02788548 -10.02374962
 -10.02299916 -10.022823   -10.01916284 -10.01914966 -10.01456601
 -10.01345386 -10.01307218 -10.0124526  -10.00855237 -10.00818741
 -10.00772382 -10.00739136 -10.00478495 -10.00415211 -10.00054256
  -9.99942426  -9.99511087  -0.86248958  -0.84975742  -0.81462197
  -0.79360956  -0.78462616  -0.75845406  -0.74803599  -0.70243596
  -0.68437863  -0.67221271  -0.64636034  -0.62930609  -0.61108883
  -0.59399227  -0.58190052  -0.57546112  -0.55220055  -0.52822041
  -0.50029189  -0.48261279  -0.47410145  -0.46637581  -0.46283266
  -0.44321554  -0.43854427  -0.42357836  -0.41866743  -0.41525543
  -0.39258451  -0.38291014  -0.37530448  -0.3632949   -0.35753668
  -0.35071234  -0.34605715  -0.3265459   -0.32140077  -0.31892786
  -0.29142361  -0.28943086  -0.27909222  -0.27501644  -0.26897523
  -0.2457346   -0.24384235  -0.23274192  -0.19941401  -0.18608152
  -0.16469563  -0.14430762  -0.11102024  -0.01588967   0.01903495
   0.04072277   0.08116489   0.12089036   0.13771429   0.13924054
   0.1627325    0.20164428   0.23172557   0.25486816   0.26720746
   0.28834015   0.29777733   0.31193904   0.31498324   0.3333588
   0.33820526   0.35443963   0.37215697   0.38272406   0.41482628
   0.43106544   0.45008191   0.46037436   0.4677731    0.4861713
   0.5057423    0.51825762   0.52933451   0.5387933    0.56252281
   0.57626832   0.59044816   0.60219739   0.61927699   0.65009888
   0.67407133   0.68780773   0.71851652   0.72781284   0.75721909
   0.78029571   0.78728706   0.81374914   0.82750156   0.85429269
   0.90278919   0.94202422   1.02996818   1.05390206]
nelec by numeric integration = 145.99999845957936
    CPU time for vxc     38.51 sec, wall time     15.91 sec
E1 = -4110.7940560935795  Ecoul = 1900.2351386749403  Exc = -124.78707472740902
Extra cycle  E= -835.597226912152  delta_E= 8.55e-11  |g|= 1.71e-05  |ddm|= 3.27e-05
    CPU time for scf_cycle    625.10 sec, wall time    255.70 sec
    CPU time for SCF    625.10 sec, wall time    255.70 sec
converged SCF energy = -835.597226912152
nelec by numeric integration = 145.99999845957936
    CPU time for vxc     38.36 sec, wall time     15.81 sec
 ** Mulliken pop  **
pop of  0 C 1s            1.99034
pop of  0 C 2s            1.03994
pop of  0 C 2px           1.00694
pop of  0 C 2py           1.00121
pop of  0 C 2pz           0.99016
pop of  1 C 1s            1.99052
pop of  1 C 2s            1.09772
pop of  1 C 2px           0.99168
pop of  1 C 2py           0.96470
pop of  1 C 2pz           0.95053
pop of  2 C 1s            1.99074
pop of  2 C 2s            1.14043
pop of  2 C 2px           0.98653
pop of  2 C 2py           0.93549
pop of  2 C 2pz           1.00089
pop of  3 C 1s            1.99121
pop of  3 C 2s            1.07298
pop of  3 C 2px           1.01008
pop of  3 C 2py           0.97399
pop of  3 C 2pz           1.05508
pop of  4 C 1s            1.99122
pop of  4 C 2s            1.20721
pop of  4 C 2px           0.98619
pop of  4 C 2py           0.91646
pop of  4 C 2pz           0.94822
pop of  5 C 1s            1.99112
pop of  5 C 2s            1.11389
pop of  5 C 2px           1.00487
pop of  5 C 2py           0.97498
pop of  5 C 2pz           1.03545
pop of  6 C 1s            1.99078
pop of  6 C 2s            1.13401
pop of  6 C 2px           0.99837
pop of  6 C 2py           0.98367
pop of  6 C 2pz           0.96482
pop of  7 C 1s            1.99052
pop of  7 C 2s            1.10372
pop of  7 C 2px           1.01795
pop of  7 C 2py           1.02449
pop of  7 C 2pz           0.99858
pop of  8 C 1s            1.99064
pop of  8 C 2s            1.12018
pop of  8 C 2px           1.00475
pop of  8 C 2py           0.94138
pop of  8 C 2pz           0.96547
pop of  9 C 1s            1.99131
pop of  9 C 2s            1.16913
pop of  9 C 2px           0.95827
pop of  9 C 2py           0.92158
pop of  9 C 2pz           0.94599
pop of  10 C 1s           1.99116
pop of  10 C 2s           1.18843
pop of  10 C 2px          0.99368
pop of  10 C 2py          0.92796
pop of  10 C 2pz          0.98809
pop of  11 C 1s           1.99113
pop of  11 C 2s           1.15809
pop of  11 C 2px          1.01470
pop of  11 C 2py          0.93310
pop of  11 C 2pz          0.98613
pop of  12 C 1s           1.99126
pop of  12 C 2s           1.18175
pop of  12 C 2px          0.97528
pop of  12 C 2py          0.92586
pop of  12 C 2pz          0.88824
pop of  13 C 1s           1.99053
pop of  13 C 2s           1.08678
pop of  13 C 2px          0.98954
pop of  13 C 2py          1.00118
pop of  13 C 2pz          0.97085
pop of  14 C 1s           1.99044
pop of  14 C 2s           1.06322
pop of  14 C 2px          1.04847
pop of  14 C 2py          1.00002
pop of  14 C 2pz          1.04279
pop of  15 C 1s           1.99134
pop of  15 C 2s           1.12766
pop of  15 C 2px          0.98199
pop of  15 C 2py          0.96690
pop of  15 C 2pz          1.00949
pop of  16 C 1s           1.99103
pop of  16 C 2s           1.10397
pop of  16 C 2px          0.99570
pop of  16 C 2py          0.96045
pop of  16 C 2pz          0.96275
pop of  17 C 1s           1.99143
pop of  17 C 2s           1.20680
pop of  17 C 2px          0.96525
pop of  17 C 2py          0.89781
pop of  17 C 2pz          0.91850
pop of  18 C 1s           1.99192
pop of  18 C 2s           1.12642
pop of  18 C 2px          0.98216
pop of  18 C 2py          0.95414
pop of  18 C 2pz          0.99959
pop of  19 C 1s           1.99162
pop of  19 C 2s           1.22386
pop of  19 C 2px          0.97153
pop of  19 C 2py          0.93995
pop of  19 C 2pz          0.97281
pop of  20 C 1s           1.99151
pop of  20 C 2s           1.08520
pop of  20 C 2px          1.01044
pop of  20 C 2py          0.99090
pop of  20 C 2pz          1.00058
pop of  21 C 1s           1.99100
pop of  21 C 2s           1.16637
pop of  21 C 2px          0.98808
pop of  21 C 2py          1.00017
pop of  21 C 2pz          0.94590
pop of  22 H 1s           0.91612
pop of  23 H 1s           0.87987
pop of  24 H 1s           0.93848
pop of  25 H 1s           0.88425
pop of  26 H 1s           0.93446
pop of  27 H 1s           0.88589
pop of  28 H 1s           0.91006
pop of  29 H 1s           0.89545
pop of  30 H 1s           0.89140
pop of  31 H 1s           0.90694
pop of  32 H 1s           0.90992
pop of  33 H 1s           0.89017
pop of  34 H 1s           0.96746
pop of  35 H 1s           0.90919
 ** Mulliken atomic charges  **
charge of    0C =     -0.02860
charge of    1C =      0.00484
charge of    2C =     -0.05410
charge of    3C =     -0.10334
charge of    4C =     -0.04930
charge of    5C =     -0.12032
charge of    6C =     -0.07165
charge of    7C =     -0.13526
charge of    8C =     -0.02242
charge of    9C =      0.01372
charge of   10C =     -0.08932
charge of   11C =     -0.08315
charge of   12C =      0.03762
charge of   13C =     -0.03888
charge of   14C =     -0.14496
charge of   15C =     -0.07738
charge of   16C =     -0.01390
charge of   17C =      0.02021
charge of   18C =     -0.05423
charge of   19C =     -0.09977
charge of   20C =     -0.07864
charge of   21C =     -0.09152
charge of   22H =      0.08388
charge of   23H =      0.12013
charge of   24H =      0.06152
charge of   25H =      0.11575
charge of   26H =      0.06554
charge of   27H =      0.11411
charge of   28H =      0.08994
charge of   29H =      0.10455
charge of   30H =      0.10860
charge of   31H =      0.09306
charge of   32H =      0.09008
charge of   33H =      0.10983
charge of   34H =      0.03254
charge of   35H =      0.09081
Dipole moment(X, Y, Z, Debye):  0.15989,  0.20805, -0.34707
nelec by numeric integration = 145.99999845957936
    CPU time for vxc     37.47 sec, wall time     15.64 sec
E1 = -4110.7940560935795  Ecoul = 1900.2351386749397  Exc = -124.78707472740902
nelec by numeric integration = 145.99999845957936
    CPU time for vxc     37.46 sec, wall time     15.72 sec
E1 = -4110.7940560935795  Ecoul = 1900.23513867494  Exc = -124.78707472740902
