System: uname_result(system='Linux', node='cosmopc18', release='5.15.0-97-generic', version='#107-Ubuntu SMP Wed Feb 7 13:26:48 UTC 2024', machine='x86_64')  Threads 4
Python 3.11.8 (main, Feb 26 2024, 21:39:34) [GCC 11.2.0]
numpy 1.26.4  scipy 1.11.4
Date: Tue Apr  9 16:59:50 2024
PySCF version 2.3.0
PySCF path  /home/saade/miniconda3/envs/tutorial/lib/python3.11/site-packages/pyscf

[ENV] PYSCFAD_BACKEND torch
[CONFIG] conf_file None
[INPUT] verbose = 5
[INPUT] max_memory = 4000 
[INPUT] num. atoms = 36
[INPUT] num. electrons = 146
[INPUT] charge = 0
[INPUT] spin (= nelec alpha-beta = 2S) = 0
[INPUT] symmetry False subgroup None
[INPUT] Mole.unit = angstrom
[INPUT] Symbol           X                Y                Z      unit          X                Y                Z       unit  Magmom
[INPUT]  1 C      0.045909000000   3.721838000000   0.573076000000 AA    0.086755436653   7.033254499999   1.082956688561 Bohr   0.0
[INPUT]  2 C      0.033158000000   3.690563000000  -0.713168000000 AA    0.062659538838   6.974153315453  -1.347692200804 Bohr   0.0
[INPUT]  3 C     -0.095737000000   4.856089000000   1.322197000000 AA   -0.180916709987   9.176678246513   2.498590212722 Bohr   0.0
[INPUT]  4 C     -0.124004000000   2.284221000000   1.279995000000 AA   -0.234333598351   4.316552097980   2.418839990813 Bohr   0.0
[INPUT]  5 C     -0.066438000000   4.911209000000  -1.328888000000 AA   -0.125549624264   9.280839950499  -2.511234370221 Bohr   0.0
[INPUT]  6 C     -0.089011000000   2.614620000000  -1.259461000000 AA   -0.168206412074   4.940915719810  -2.380036354571 Bohr   0.0
[INPUT]  7 C      0.101266000000   6.091604000000  -0.836118000000 AA    0.191365005730  11.511463219305  -1.580034027819 Bohr   0.0
[INPUT]  8 C     -0.161477000000   6.205697000000   0.641028000000 AA   -0.305147305416  11.727067742035   1.211367358178 Bohr   0.0
[INPUT]  9 C     -0.194649000000   1.268910000000   0.662313000000 AA   -0.367833300420   2.397892376722   1.251590178739 Bohr   0.0
[INPUT] 10 C     -0.016870000000   1.234958000000  -0.681416000000 AA   -0.031879679721   2.333732395341  -1.287689616897 Bohr   0.0
[INPUT] 11 C     -0.267188000000   0.027688000000   1.489428000000 AA   -0.504912143770   0.052322736937   2.814611002259 Bohr   0.0
[INPUT] 12 C      0.037902000000   0.045382000000  -1.491958000000 AA    0.071624399573   0.085759550985  -2.819392009354 Bohr   0.0
[INPUT] 13 C      0.044287000000  -1.256543000000   0.736391000000 AA    0.083690300879  -2.374522133739   1.391577310595 Bohr   0.0
[INPUT] 14 C      0.043093000000  -1.219018000000  -0.730798000000 AA    0.081433967886  -2.303610160915  -1.381008072380 Bohr   0.0
[INPUT] 15 C      0.016012000000  -2.318811000000   1.501937000000 AA    0.030258294707  -4.381917724629   2.838249586351 Bohr   0.0
[INPUT] 16 C     -0.018740000000  -2.327391000000  -1.407348000000 AA   -0.035413467574  -4.398131574778  -2.659502281954 Bohr   0.0
[INPUT] 17 C     -0.186169000000  -3.560146000000   0.859056000000 AA   -0.351808422884  -6.727700903466   1.623380565664 Bohr   0.0
[INPUT] 18 C     -0.159686000000  -3.648383000000  -0.784366000000 AA   -0.301762805927  -6.894444667519  -1.482236921421 Bohr   0.0
[INPUT] 19 C      0.059955000000  -4.934748000000   1.268023000000 AA    0.113298529798  -9.325322213745   2.396216189649 Bohr   0.0
[INPUT] 20 C     -0.166171000000  -4.788866000000  -1.196770000000 AA   -0.314017679845  -9.049645187241  -2.261567534096 Bohr   0.0
[INPUT] 21 C     -0.291123000000  -5.953481000000   0.646567000000 AA   -0.550142738562 -11.250448577802   1.221834551182 Bohr   0.0
[INPUT] 22 C      0.073289000000  -6.046703000000  -0.931733000000 AA    0.138496137943 -11.426612626586  -1.760720191219 Bohr   0.0
[INPUT] 23 H      0.032254000000   5.011844000000   2.679887000000 AA    0.060951226422   9.471012539045   5.064252474782 Bohr   0.0
[INPUT] 24 H      0.011499000000   2.427557000000   2.371611000000 AA    0.021729960706   4.587417881771   4.481695264006 Bohr   0.0
[INPUT] 25 H      0.010519000000   4.935255000000  -2.377796000000 AA    0.019878029104   9.326280304890  -4.493383220086 Bohr   0.0
[INPUT] 26 H      0.001698000000   2.453920000000  -2.479187000000 AA    0.003208754960   4.637236731593  -4.684984441582 Bohr   0.0
[INPUT] 27 H      0.029348000000   6.920812000000  -1.172557000000 AA    0.055459682304  13.078439239603  -2.215811595442 Bohr   0.0
[INPUT] 28 H     -0.120434000000   6.905453000000   1.431754000000 AA   -0.227587276086  13.049414936056   2.705622937751 Bohr   0.0
[INPUT] 29 H     -0.138227000000  -0.039288000000   2.444032000000 AA   -0.261211173020  -0.074243559982   4.618551119673 Bohr   0.0
[INPUT] 30 H      0.089996000000  -0.025594000000  -2.569330000000 AA    0.170067792306  -0.048365650432  -4.855330023629 Bohr   0.0
[INPUT] 31 H     -0.070787000000  -2.471513000000   2.569629000000 AA   -0.133768043180  -4.670482683302   4.855895051740 Bohr   0.0
[INPUT] 32 H      0.075434000000  -2.572738000000  -2.526415000000 AA    0.142549600480  -4.861770210261  -4.774232426993 Bohr   0.0
[INPUT] 33 H      0.092057000000  -4.793400000000   2.435552000000 AA    0.173962517849  -9.058213205490   4.602526242137 Bohr   0.0
[INPUT] 34 H      0.006516000000  -4.927150000000  -2.359582000000 AA    0.012313455428  -9.310964074651  -4.458963748453 Bohr   0.0
[INPUT] 35 H     -0.134902000000  -6.850177000000   1.201136000000 AA   -0.254927833656 -12.944958434795   2.269818078356 Bohr   0.0
[INPUT] 36 H     -0.020123000000  -7.134712000000  -1.264367000000 AA   -0.038026958805 -13.482651657648  -2.389307350938 Bohr   0.0
[INPUT] ---------------- BASIS SET ---------------- 
[INPUT] l, kappa, [nprim/nctr], expnt,             c_1 c_2 ...
[INPUT] H
[INPUT] 0    0    [3    /1   ]  3.42525091        0.15432897
                                0.62391373        0.53532814
                                0.1688554         0.44463454
[INPUT] C
[INPUT] 0    0    [3    /1   ]  71.616837         0.15432897
                                13.045096         0.53532814
                                3.5305122         0.44463454
[INPUT] 0    0    [3    /1   ]  2.9412494         -0.09996723
                                0.6834831         0.39951283
                                0.2222899         0.70011547
[INPUT] 1    0    [3    /1   ]  2.9412494         0.15591627
                                0.6834831         0.60768372
                                0.2222899         0.39195739

nuclear repulsion = 1509.38579643564
number of shells = 80
number of NR pGTOs = 372
number of NR cGTOs = 124
basis = sto3g
ecp = {}
CPU time:     64063.07
atom C rad-grids = 99, ang-grids = [ 50  50  50  50  50  50  50  50  50  50  50  50  50  50  50  50  50  50
  50  50  50  50  50  50  50  50  50  50  50  50  50  86  86  86  86  86
  86  86  86  86  86  86  86 434 434 434 434 434 434 434 434 434 590 590
 590 590 590 590 590 590 590 590 590 590 590 590 590 590 590 590 590 590
 590 590 590 590 590 590 590 434 434 434 434 434 434 434 434 434 434 434
 434 434 434 434 434 434 434 434 434]
atom H rad-grids = 99, ang-grids = [ 50  50  50  50  50  50  50  50  50  50  50  50  50  50  50  50  50  50
  50  50  50  50  50  50  50  50  50  50  86  86  86  86  86  86  86 434
 434 434 434 434 434 434 434 590 590 590 590 590 590 590 590 590 590 590
 590 590 590 590 590 590 590 590 590 590 590 590 590 590 590 434 434 434
 434 434 434 434 434 434 434 434 434 434 434 434 434 434 434 434 434 434
 434 434 434 434 434 434 434 434 434]
tot_boxes 5270, boxes in each direction [ 8 29 15]
Padding 0 grids
tot grids = 1157832


******** <class 'pyscf.dft.rks.RKS'> ********
method = RKS
initial guess = minao
damping factor = 0
level_shift factor = 0
DIIS = <class 'pyscf.scf.diis.CDIIS'>
diis_start_cycle = 1
diis_space = 8
SCF conv_tol = 1e-10
SCF conv_tol_grad = None
SCF max_cycles = 50
direct_scf = True
direct_scf_tol = 1e-13
chkfile to save SCF result = /home/saade/mlelec/tutorials/tmp1t0b9xzp
max_memory 4000 MB (current use 688 MB)
XC library pyscf.dft.libxc version 6.1.0
    S. Lehtola, C. Steigemann, M. J.T. Oliveira, and M. A.L. Marques.,  SoftwareX 7, 1–5 (2018)
XC functionals = b3lypg
    P. J. Stephens, F. J. Devlin, C. F. Chabalowski, and M. J. Frisch.,  J. Phys. Chem. 98, 11623 (1994)
radial grids: 
    Treutler-Ahlrichs [JCP 102, 346 (1995); DOI:10.1063/1.469408] (M4) radial grids
    
becke partition: Becke, JCP 88, 2547 (1988); DOI:10.1063/1.454033
pruning grids: <function nwchem_prune at 0x7f9db5616ca0>
grids dens level: 3
symmetrized grids: False
atomic radii adjust function: <function treutler_atomic_radii_adjust at 0x7f9db5617380>
User specified grid scheme (99, 590)
small_rho_cutoff = 1e-07
Set gradient conv threshold to 1e-05
Initial guess from minao.
nelec by numeric integration = 145.2739790911259
    CPU time for vxc     37.94 sec, wall time     15.95 sec
E1 = -4118.720062875804  Ecoul = 1893.7128724066529  Exc = -126.2120611527948
init E= -841.833455186302
cond(S) = 22.88545673250036
    CPU time for initialize scf     47.97 sec, wall time     18.33 sec
  HOMO = -0.195305712473795  LUMO = -0.161950185290171
  mo_energy =
[-1.01581377e+01 -1.01473537e+01 -1.01331919e+01 -1.01216214e+01
 -1.01156023e+01 -1.01151294e+01 -1.01141572e+01 -1.01126473e+01
 -1.01124012e+01 -1.01121950e+01 -1.01098921e+01 -1.01071388e+01
 -1.01051455e+01 -1.01042915e+01 -1.01039316e+01 -1.00982534e+01
 -1.00963951e+01 -1.00924130e+01 -1.00802338e+01 -1.00787467e+01
 -1.00715279e+01 -1.00678548e+01 -1.12722899e+00 -1.07924593e+00
 -1.04985083e+00 -1.00847905e+00 -9.57988983e-01 -9.46231809e-01
 -9.21908437e-01 -8.97638514e-01 -8.67412413e-01 -8.51558251e-01
 -7.93014816e-01 -7.81499406e-01 -7.27956374e-01 -7.12759983e-01
 -6.96807513e-01 -6.89547276e-01 -6.64985995e-01 -6.32170701e-01
 -5.99831408e-01 -5.87900028e-01 -5.76546397e-01 -5.58389837e-01
 -5.44941958e-01 -5.38176495e-01 -5.23423487e-01 -5.05938528e-01
 -4.95577222e-01 -4.88785299e-01 -4.81659535e-01 -4.73406134e-01
 -4.61694589e-01 -4.50153952e-01 -4.41642265e-01 -4.35239420e-01
 -4.32478341e-01 -4.15338918e-01 -4.13711312e-01 -4.02964887e-01
 -3.84133739e-01 -3.80368426e-01 -3.69241336e-01 -3.57813084e-01
 -3.55208607e-01 -3.40257067e-01 -3.22796882e-01 -3.17944701e-01
 -3.00853911e-01 -2.65402093e-01 -2.61947853e-01 -2.43875887e-01
 -1.95305712e-01 -1.61950185e-01 -9.57978382e-02 -8.98153636e-02
 -4.43312597e-02 -3.68793128e-02 -4.32938477e-03  2.76577360e-02
  4.54161625e-02  8.90224967e-02  9.76643718e-02  1.06804336e-01
  1.46495235e-01  1.52561642e-01  1.60802702e-01  1.65312461e-01
  1.89017498e-01  1.91396490e-01  2.03383792e-01  2.12417502e-01
  2.25608109e-01  2.34669343e-01  2.78257230e-01  2.86804701e-01
  2.91670836e-01  2.98834789e-01  3.20070019e-01  3.28543725e-01
  3.37300896e-01  3.59467046e-01  3.64855646e-01  3.83681817e-01
  3.88696792e-01  4.23138228e-01  4.34482886e-01  4.54750625e-01
  4.74568498e-01  5.01064341e-01  5.05774069e-01  5.55275032e-01
  5.57854393e-01  5.95530480e-01  6.08564643e-01  6.18891856e-01
  6.43050704e-01  6.56262761e-01  7.05907572e-01  7.17613231e-01
  7.32777107e-01  8.32725710e-01  8.45570390e-01  8.73083181e-01]
nelec by numeric integration = 145.9999998417629
    CPU time for vxc     38.12 sec, wall time     15.96 sec
E1 = -4134.458567230704  Ecoul = 1914.2915579716912  Exc = -124.84900601853451
cycle= 1 E= -835.630218841904  delta_E=  6.2  |g|= 0.318  |ddm|= 9.34
    CPU time for cycle= 1     38.41 sec, wall time     16.01 sec
  HOMO = -0.0717728850134401  LUMO = -0.00705638867083552
  mo_energy =
[-1.00426541e+01 -1.00364160e+01 -1.00337547e+01 -1.00198906e+01
 -1.00098152e+01 -1.00096133e+01 -9.99953818e+00 -9.98902466e+00
 -9.98823089e+00 -9.98576776e+00 -9.98482917e+00 -9.98209823e+00
 -9.97500669e+00 -9.96636576e+00 -9.96409711e+00 -9.95091701e+00
 -9.94900105e+00 -9.93606614e+00 -9.93305454e+00 -9.92107750e+00
 -9.91974523e+00 -9.91654842e+00 -8.46272145e-01 -8.12371782e-01
 -7.92650528e-01 -7.73576802e-01 -7.37899447e-01 -7.31858254e-01
 -7.09719926e-01 -6.96036174e-01 -6.74083925e-01 -6.64331083e-01
 -6.29267604e-01 -6.10553740e-01 -5.78296988e-01 -5.69507272e-01
 -5.48225476e-01 -5.35429074e-01 -5.23432175e-01 -4.95293610e-01
 -4.76549177e-01 -4.62475143e-01 -4.59745073e-01 -4.45459755e-01
 -4.37551756e-01 -4.20523044e-01 -4.10980219e-01 -3.85427949e-01
 -3.78110822e-01 -3.69763574e-01 -3.60325835e-01 -3.54863444e-01
 -3.50871684e-01 -3.41325500e-01 -3.29448542e-01 -3.27706639e-01
 -3.15405329e-01 -3.04751574e-01 -2.99099134e-01 -2.88643911e-01
 -2.80485160e-01 -2.70625752e-01 -2.60316305e-01 -2.48263482e-01
 -2.31619521e-01 -2.23779206e-01 -2.05861614e-01 -1.96531488e-01
 -1.87659405e-01 -1.55987828e-01 -1.45000786e-01 -1.31198727e-01
 -7.17728850e-02 -7.05638867e-03  5.76177516e-02  6.58418386e-02
  1.12384477e-01  1.17565766e-01  1.53307764e-01  2.01569946e-01
  2.12740122e-01  2.19994691e-01  2.49032469e-01  2.69860427e-01
  2.98088027e-01  3.05692589e-01  3.26068411e-01  3.29571216e-01
  3.31212669e-01  3.41517800e-01  3.52326593e-01  3.63464762e-01
  3.74786921e-01  3.89099444e-01  4.28188775e-01  4.33833363e-01
  4.47206455e-01  4.68243338e-01  4.75063257e-01  4.77754089e-01
  4.97738910e-01  5.07667766e-01  5.24081981e-01  5.33611427e-01
  5.59383668e-01  5.68377076e-01  5.83049572e-01  5.97397965e-01
  6.38562954e-01  6.70152858e-01  6.73840892e-01  6.93084203e-01
  7.25409449e-01  7.66637562e-01  7.73376870e-01  7.91825965e-01
  8.03602827e-01  8.13078708e-01  8.80648113e-01  9.05171074e-01
  9.14024906e-01  1.01398391e+00  1.05173211e+00  1.06454416e+00]
nelec by numeric integration = 145.9999997989344
    CPU time for vxc     38.15 sec, wall time     15.84 sec
E1 = -4126.965343270561  Ecoul = 1906.702792327427  Exc = -124.68971815430943
cycle= 2 E= -835.5664726618  delta_E= 0.0637  |g|= 0.513  |ddm|= 1.37
    CPU time for cycle= 2     38.80 sec, wall time     15.93 sec
  HOMO = -0.0929085829759422  LUMO = -0.0276298316228333
  mo_energy =
[-10.04782211 -10.03856943 -10.034773   -10.02803487 -10.02197511
 -10.01357422 -10.01305685 -10.01035758 -10.00784561 -10.0031614
 -10.00203119  -9.99975025  -9.99917468  -9.99539005  -9.99523949
  -9.98984178  -9.98861854  -9.98296402  -9.98247182  -9.97940233
  -9.96821311  -9.95016988  -0.86723075  -0.83785818  -0.81828233
  -0.79513247  -0.7588648   -0.74289966  -0.72599195  -0.71087517
  -0.69506162  -0.67947293  -0.64743131  -0.62132662  -0.59104451
  -0.5760506   -0.56710065  -0.56006346  -0.53350978  -0.50923539
  -0.48995559  -0.47625686  -0.46621638  -0.45557244  -0.44585542
  -0.43885398  -0.4246108   -0.40570336  -0.39489869  -0.38752922
  -0.38301796  -0.37510723  -0.36142538  -0.35498093  -0.34935203
  -0.3397332   -0.3265266   -0.3182166   -0.31471444  -0.30742866
  -0.28886498  -0.28338797  -0.27536996  -0.27070934  -0.25795195
  -0.23351469  -0.22509399  -0.21306135  -0.20140611  -0.16919821
  -0.1655578   -0.14901117  -0.09290858  -0.02762983   0.03662081
   0.05260286   0.09955813   0.11495333   0.14626307   0.17613018
   0.18851684   0.21503756   0.23881819   0.24268058   0.28157325
   0.30107665   0.30158951   0.31110098   0.3246445    0.3317239
   0.3436446    0.35085041   0.36996201   0.37959415   0.41619602
   0.42548192   0.43090776   0.43661861   0.45780879   0.47224074
   0.48753471   0.49577562   0.50674211   0.51792406   0.52987511
   0.561886     0.57716448   0.59692637   0.60082079   0.64266706
   0.65394687   0.69032638   0.70361594   0.74491075   0.74995875
   0.77472525   0.79035284   0.80775521   0.84700741   0.87650799
   0.88906104   0.99657047   1.00573651   1.0276698 ]
nelec by numeric integration = 145.9999997662248
    CPU time for vxc     38.64 sec, wall time     16.00 sec
E1 = -4130.5313018447705  Ecoul = 1910.2482110644544  Exc = -124.72428039051155
cycle= 3 E= -835.621574735184  delta_E= -0.0551  |g|= 0.34  |ddm|=  1.5
    CPU time for cycle= 3     39.23 sec, wall time     16.09 sec
  HOMO = -0.0922669575906629  LUMO = -0.0319223307808945
  mo_energy =
[-10.0437319  -10.03210573 -10.03041162 -10.02865183 -10.02542073
 -10.02537931 -10.0250666  -10.02142106 -10.02013643 -10.01915811
 -10.01688318 -10.01573903 -10.01271789 -10.00503459 -10.00300227
 -10.00296865  -9.99985051  -9.99469875  -9.98771757  -9.98717088
  -9.98600678  -9.98395643  -0.88184842  -0.84086777  -0.82425022
  -0.79757352  -0.76278711  -0.75528179  -0.735754    -0.72054931
  -0.69486152  -0.68551415  -0.64046408  -0.63748983  -0.59460841
  -0.58639373  -0.56840234  -0.56300176  -0.54379613  -0.51029256
  -0.49368878  -0.47988246  -0.47356423  -0.45899995  -0.44847978
  -0.44064457  -0.43096474  -0.41049042  -0.39364787  -0.39141788
  -0.38817205  -0.38347295  -0.36604014  -0.35894304  -0.35465766
  -0.34309871  -0.33582009  -0.32612856  -0.32292865  -0.31050847
  -0.29690568  -0.29226401  -0.28205861  -0.27044388  -0.26013737
  -0.24613832  -0.23219419  -0.22496577  -0.21066614  -0.17315908
  -0.16402663  -0.15547796  -0.09226696  -0.03192233   0.03896866
   0.04407694   0.09422427   0.09809252   0.13232691   0.17187288
   0.18902009   0.2124823    0.23733998   0.23816375   0.28408013
   0.29133626   0.29785563   0.30253102   0.3269342    0.33104309
   0.33593402   0.34613852   0.3553016    0.37089774   0.41493265
   0.42303484   0.42750511   0.43791162   0.45726883   0.46760728
   0.47813462   0.49123811   0.49990022   0.51498193   0.52954066
   0.55839378   0.5666776    0.58337893   0.61237607   0.63967477
   0.64501581   0.68665086   0.69601936   0.73895333   0.74841212
   0.75973528   0.78543981   0.78738183   0.85001027   0.86866158
   0.87318654   0.97545341   0.99737839   1.02027696]
nelec by numeric integration = 145.99999981248212
    CPU time for vxc     38.23 sec, wall time     15.82 sec
E1 = -4130.871236348453  Ecoul = 1910.5556258265701  Exc = -124.73569985278448
cycle= 4 E= -835.665513939024  delta_E= -0.0439  |g|= 0.126  |ddm|= 0.898
    CPU time for cycle= 4     38.76 sec, wall time     15.90 sec
  HOMO = -0.0954257511976146  LUMO = -0.0349311760307931
  mo_energy =
[-10.03581965 -10.03475796 -10.03443768 -10.03096349 -10.0264266
 -10.0205253  -10.01994219 -10.01989086 -10.01697056 -10.01653968
 -10.01578607 -10.01415611 -10.01361127 -10.01259308 -10.01048793
 -10.00809613 -10.00399663 -10.00136991 -10.00040487  -9.99910659
  -9.99713432  -9.98801082  -0.87700714  -0.84279701  -0.82572124
  -0.80052431  -0.76307295  -0.75635638  -0.73546005  -0.71931756
  -0.69917271  -0.68643835  -0.64533068  -0.6373384   -0.59512249
  -0.58595323  -0.56909672  -0.56450079  -0.54207587  -0.51323481
  -0.49415599  -0.48101187  -0.47367951  -0.46051486  -0.450702
  -0.44267998  -0.4320458   -0.41140931  -0.39532706  -0.3915663
  -0.38805904  -0.38231392  -0.36858746  -0.35919576  -0.35529193
  -0.34472613  -0.33584557  -0.32708567  -0.32338128  -0.31111477
  -0.29601922  -0.29327997  -0.28364099  -0.2730314   -0.2623583
  -0.24540116  -0.23293989  -0.22554326  -0.21050048  -0.17542083
  -0.17017153  -0.15714416  -0.09542575  -0.03493118   0.03457237
   0.04221008   0.09235918   0.09833881   0.13405996   0.16955992
   0.18490352   0.21571405   0.23483763   0.23657786   0.28113398
   0.29454597   0.29699724   0.30136502   0.320525     0.33115422
   0.3378541    0.34375824   0.35435292   0.37268847   0.41285087
   0.42353617   0.42755979   0.43469006   0.45381219   0.46763001
   0.47722781   0.49181315   0.49687146   0.51430453   0.52709992
   0.55740179   0.56665578   0.58435401   0.60758304   0.63786722
   0.64435033   0.68721754   0.69165985   0.73999237   0.7457825
   0.76064486   0.78143825   0.78933967   0.8460721    0.86577359
   0.87529797   0.98294347   0.9970417    1.01789801]
nelec by numeric integration = 145.99999980612367
    CPU time for vxc     38.13 sec, wall time     15.84 sec
E1 = -4130.650341080945  Ecoul = 1910.3321922317846  Exc = -124.73887179122504
cycle= 5 E= -835.671224204742  delta_E= -0.00571  |g|= 0.0351  |ddm|= 0.274
    CPU time for cycle= 5     38.58 sec, wall time     15.91 sec
  HOMO = -0.0961428236006684  LUMO = -0.0348294305698661
  mo_energy =
[-10.0392574  -10.03491778 -10.0342446  -10.03360287 -10.03141299
 -10.02544939 -10.02173932 -10.01988158 -10.01707588 -10.01323012
 -10.01274289 -10.01124007 -10.01117503 -10.01008832 -10.00958558
 -10.00736715 -10.00551979 -10.00458003 -10.00152583  -9.99450517
  -9.99354203  -9.9824402   -0.87801456  -0.84266913  -0.82466434
  -0.80001919  -0.76358146  -0.75606442  -0.73506112  -0.71951028
  -0.69813204  -0.68702459  -0.64408478  -0.63725939  -0.59538218
  -0.5859848   -0.57013435  -0.56457133  -0.54282226  -0.51201526
  -0.49432318  -0.4810101   -0.47318019  -0.45976671  -0.45036583
  -0.44217839  -0.43131176  -0.41176015  -0.39636222  -0.39215041
  -0.38941282  -0.38353913  -0.3668886   -0.35950139  -0.35603119
  -0.34437972  -0.33552107  -0.3268885   -0.3240913   -0.31109155
  -0.29671977  -0.29355792  -0.28332191  -0.27321431  -0.26252114
  -0.24528433  -0.23328792  -0.22516585  -0.21100551  -0.17502567
  -0.16886891  -0.15677295  -0.09614282  -0.03482943   0.03541448
   0.04187579   0.09219368   0.0990099    0.13317362   0.17021718
   0.1855492    0.21369022   0.2362502    0.23658413   0.28207616
   0.29430702   0.29699008   0.30107571   0.32347716   0.32932112
   0.33670484   0.34382215   0.3551411    0.37139267   0.41397964
   0.42256778   0.42563277   0.43320313   0.45524639   0.467817
   0.47748105   0.49271173   0.4967404    0.51264487   0.52738966
   0.55801643   0.56675749   0.5851204    0.60684199   0.6377102
   0.6429113    0.6875985    0.69163079   0.73951563   0.74429552
   0.76054754   0.78365064   0.79010966   0.84486354   0.86926175
   0.87537846   0.98188652   0.99659872   1.0213297 ]
nelec by numeric integration = 145.9999998020976
    CPU time for vxc     38.07 sec, wall time     15.89 sec
E1 = -4130.826246779645  Ecoul = 1910.5054116523208  Exc = -124.73651163066697
cycle= 6 E= -835.671550322347  delta_E= -0.000326  |g|= 0.0192  |ddm|= 0.0825
    CPU time for cycle= 6     38.38 sec, wall time     15.95 sec
  HOMO = -0.0954146239563436  LUMO = -0.0336413007949697
  mo_energy =
[-10.03574505 -10.03487185 -10.03230084 -10.03124962 -10.02879991
 -10.01999854 -10.01911776 -10.01829262 -10.01685444 -10.0139411
 -10.01322306 -10.01232799 -10.01157986 -10.01100197 -10.00991604
 -10.00581912 -10.00306484 -10.00264385 -10.00055386  -9.99509027
  -9.99467106  -9.98432763  -0.87718328  -0.84184518  -0.82430034
  -0.79916797  -0.76247812  -0.75547565  -0.73454941  -0.71905309
  -0.69764964  -0.68605175  -0.64364489  -0.63673354  -0.59454715
  -0.58528857  -0.56896906  -0.56389063  -0.54224036  -0.51201457
  -0.4936253   -0.48037058  -0.47294674  -0.45939679  -0.44970349
  -0.44184208  -0.43106322  -0.41101566  -0.39494839  -0.39118295
  -0.38826932  -0.38244528  -0.36707645  -0.35895868  -0.35517791
  -0.34396916  -0.33532512  -0.32623905  -0.32318415  -0.31065477
  -0.29599732  -0.29297159  -0.28290429  -0.27247732  -0.26172304
  -0.24489933  -0.23257499  -0.22470746  -0.21041921  -0.17467759
  -0.1686683   -0.15648277  -0.09541462  -0.0336413    0.03580255
   0.04291774   0.09319613   0.09921517   0.13400042   0.17072094
   0.18625583   0.21414576   0.23605727   0.23730467   0.28239256
   0.29464265   0.29744834   0.30184529   0.32296072   0.33078306
   0.33770106   0.34469667   0.35533182   0.37256668   0.41404826
   0.42364105   0.42735884   0.43494584   0.45528955   0.46824267
   0.47790406   0.49268036   0.49752869   0.51424408   0.52784722
   0.55827905   0.56722335   0.58518184   0.6081439    0.63854774
   0.64456319   0.68783469   0.69265786   0.7405733    0.74599703
   0.76120219   0.78360453   0.79015354   0.84667875   0.86862182
   0.87588625   0.98238726   0.99788045   1.02027566]
nelec by numeric integration = 145.9999998038497
    CPU time for vxc     38.51 sec, wall time     16.04 sec
E1 = -4130.705804711792  Ecoul = 1910.383759468963  Exc = -124.73544220989442
cycle= 7 E= -835.671691017079  delta_E= -0.000141  |g|= 0.00414  |ddm|= 0.0352
    CPU time for cycle= 7     38.90 sec, wall time     16.10 sec
  HOMO = -0.0954217748604138  LUMO = -0.0335874888394652
  mo_energy =
[-10.03621981 -10.03465486 -10.03291969 -10.03133158 -10.02876665
 -10.0208102  -10.01855658 -10.01840398 -10.01682682 -10.01353603
 -10.01290667 -10.01187913 -10.01171161 -10.01071475 -10.01001885
 -10.00666153 -10.00277285 -10.00226081  -9.9995002   -9.99499078
  -9.99467646  -9.98426239  -0.87710698  -0.84182463  -0.82432634
  -0.79925345  -0.7624929   -0.75540682  -0.73459687  -0.71895251
  -0.69759838  -0.68602866  -0.64362715  -0.63663551  -0.59453836
  -0.58529546  -0.56900355  -0.56389307  -0.54213565  -0.51194607
  -0.49358432  -0.48041948  -0.47286516  -0.45938838  -0.4497894
  -0.44182013  -0.43100663  -0.41098135  -0.39508918  -0.39120467
  -0.3883052   -0.38246829  -0.36704982  -0.35888138  -0.35522161
  -0.34391204  -0.33523014  -0.32625269  -0.32325329  -0.31059036
  -0.29593904  -0.29292562  -0.28287443  -0.27244441  -0.2617011
  -0.24480209  -0.23252821  -0.2246977   -0.21030991  -0.17461082
  -0.16852674  -0.1564217   -0.09542177  -0.03358749   0.03597666
   0.04288229   0.09317169   0.09936022   0.13408985   0.17073183
   0.18619406   0.21425643   0.23616947   0.23726266   0.28238934
   0.29476947   0.29752341   0.3018023    0.32308453   0.33074678
   0.33773362   0.34468826   0.35540637   0.37250916   0.41409366
   0.4235747    0.42712874   0.43485939   0.45531857   0.46839713
   0.47802034   0.49279362   0.49757346   0.51412833   0.52787073
   0.55830074   0.56737456   0.5853088    0.60813639   0.63858626
   0.64443782   0.68803199   0.69266454   0.74057391   0.74592171
   0.76126577   0.78365508   0.79028521   0.84656019   0.86861027
   0.87596662   0.98259155   0.99759055   1.02032962]
nelec by numeric integration = 145.99999980293904
    CPU time for vxc     38.34 sec, wall time     15.89 sec
E1 = -4130.709097536363  Ecoul = 1910.3869939337599  Exc = -124.73538976206699
cycle= 8 E= -835.671696929026  delta_E= -5.91e-06  |g|= 0.0011  |ddm|= 0.00758
    CPU time for cycle= 8     38.74 sec, wall time     15.95 sec
  HOMO = -0.0954788755653727  LUMO = -0.0335918994109104
  mo_energy =
[-10.0362102  -10.03483315 -10.03297621 -10.03138419 -10.02865312
 -10.02060897 -10.01871038 -10.01840057 -10.01688318 -10.01361741
 -10.0127443  -10.01204303 -10.01163311 -10.01079837 -10.01015693
 -10.00647862 -10.00297138 -10.00240209  -9.999755    -9.99516085
  -9.99478168  -9.98420014  -0.87717796  -0.84184772  -0.82434892
  -0.7992767   -0.7625297   -0.75546864  -0.73458848  -0.71900825
  -0.69762876  -0.68605453  -0.64365862  -0.63668673  -0.59457468
  -0.58532852  -0.56901304  -0.56392227  -0.5421869   -0.51195757
  -0.49362679  -0.48040739  -0.47290835  -0.45942114  -0.44979841
  -0.44184406  -0.4310536   -0.41102227  -0.39507829  -0.39123292
  -0.38831007  -0.38249062  -0.36707754  -0.35890985  -0.35522798
  -0.3439223   -0.33526909  -0.32626143  -0.3232402   -0.31063547
  -0.29596902  -0.29294511  -0.28288463  -0.27246797  -0.2617351
  -0.24485707  -0.23256928  -0.22471855  -0.21036594  -0.17461158
  -0.16856938  -0.15643481  -0.09547888  -0.0335919    0.03592795
   0.04287853   0.09314577   0.0992909    0.13403965   0.17069421
   0.1861758    0.21424758   0.23619199   0.23725109   0.28234699
   0.29474367   0.29750996   0.30179092   0.32305172   0.33075984
   0.33769096   0.34464964   0.35536108   0.37251419   0.41411664
   0.42358958   0.42717179   0.43485831   0.45530769   0.46832409
   0.47794357   0.49274764   0.49754136   0.51412677   0.52788551
   0.55827603   0.56730108   0.58526349   0.60809008   0.63853552
   0.64445138   0.6879419    0.69261796   0.74053053   0.74588737
   0.76121097   0.78363591   0.79020415   0.84652229   0.86855403
   0.87589316   0.98248669   0.9975919    1.02038412]
nelec by numeric integration = 145.99999980304375
    CPU time for vxc     39.19 sec, wall time     16.14 sec
E1 = -4130.712122437251  Ecoul = 1910.3901268747277  Exc = -124.73549823482338
cycle= 9 E= -835.671697361704  delta_E= -4.33e-07  |g|= 0.000511  |ddm|= 0.00257
    CPU time for cycle= 9     39.80 sec, wall time     16.23 sec
  HOMO = -0.0954978420748892  LUMO = -0.0336057098118675
  mo_energy =
[-10.03623699 -10.03478196 -10.03296481 -10.03138559 -10.02874933
 -10.020706   -10.01868616 -10.0184917  -10.01687046 -10.01361638
 -10.01288331 -10.01200733 -10.01171198 -10.01085038 -10.01010171
 -10.00652523 -10.00292764 -10.0024435   -9.99976495  -9.99506823
  -9.99475802  -9.98426072  -0.87717014  -0.84187913  -0.82436982
  -0.79929791  -0.76253953  -0.75546762  -0.73461301  -0.71900558
  -0.69765254  -0.68607102  -0.64368323  -0.6366847   -0.59457948
  -0.58533443  -0.56903474  -0.56393404  -0.54218147  -0.51198235
  -0.49363271  -0.4804328   -0.4729058   -0.45943016  -0.44981406
  -0.4418506   -0.43106076  -0.41102338  -0.39510269  -0.3912408
  -0.3883322   -0.38250225  -0.36708215  -0.35891516  -0.35524062
  -0.34394791  -0.33526252  -0.32627718  -0.3232639   -0.31063224
  -0.29596826  -0.29295186  -0.28290408  -0.27248589  -0.26175234
  -0.24485181  -0.23256614  -0.22472748  -0.21036167  -0.17463682
  -0.16859873  -0.15645596  -0.09549784  -0.03360571   0.03590313
   0.04285573   0.09313415   0.09930084   0.13404571   0.17068026
   0.18615505   0.21427209   0.23614637   0.23723143   0.28235322
   0.29473978   0.29748426   0.30178524   0.32301661   0.33072327
   0.3376893    0.34464499   0.35537082   0.37250093   0.41407523
   0.42356642   0.42714534   0.43483115   0.45528279   0.46833895
   0.47795847   0.49275327   0.49752926   0.51411093   0.52784708
   0.55826734   0.56730806   0.58526727   0.60807988   0.63852412
   0.64441921   0.68795937   0.69259762   0.74051782   0.74586494
   0.76120853   0.7835963    0.79021706   0.84650514   0.86856113
   0.8759038    0.98250646   0.99758122   1.020309  ]
nelec by numeric integration = 145.9999998030662
    CPU time for vxc     38.24 sec, wall time     15.96 sec
E1 = -4130.713456521717  Ecoul = 1910.391480834765  Exc = -124.73551821173037
cycle= 10 E= -835.671697463039  delta_E= -1.01e-07  |g|= 0.000128  |ddm|= 0.00104
    CPU time for cycle= 10     38.64 sec, wall time     16.03 sec
  HOMO = -0.0955049837513702  LUMO = -0.0336105353330485
  mo_energy =
[-10.03622842 -10.03479454 -10.03295319 -10.03140202 -10.02876427
 -10.0207149  -10.01871293 -10.01845711 -10.01688093 -10.01363982
 -10.01286251 -10.01203752 -10.01168466 -10.01080772 -10.01014597
 -10.00655457 -10.00292856 -10.00245403  -9.99975266  -9.99507638
  -9.99477721  -9.98424342  -0.87718457  -0.84187549  -0.82436953
  -0.79929661  -0.76254559  -0.75547575  -0.73461341  -0.71901169
  -0.69764642  -0.68607511  -0.64367932  -0.63669326  -0.59458442
  -0.58534013  -0.56903547  -0.56393708  -0.54219074  -0.51197448
  -0.49363759  -0.48043095  -0.47291166  -0.45943102  -0.44981314
  -0.44185356  -0.43106113  -0.41103171  -0.39510488  -0.39124719
  -0.38833216  -0.38251001  -0.36707631  -0.35891851  -0.35524385
  -0.34394469  -0.33527003  -0.32627935  -0.32326564  -0.3106374
  -0.29597702  -0.29295561  -0.28290122  -0.27248514  -0.2617534
  -0.24486117  -0.23257708  -0.22473193  -0.21036821  -0.17463255
  -0.16858876  -0.15645366  -0.09550498  -0.03361054   0.03590869
   0.04285358   0.09313227   0.09928907   0.1340337    0.17068607
   0.18615432   0.21425989   0.23615971   0.23722866   0.28235246
   0.2947334    0.29748583   0.30177713   0.32303556   0.33072554
   0.33767945   0.34463954   0.35536063   0.37249018   0.41408817
   0.42356249   0.42713808   0.43482832   0.45529255   0.46832999
   0.47795232   0.49274642   0.49752781   0.51410064   0.52785184
   0.5582704    0.56729971   0.58525894   0.60807235   0.63852521
   0.64441596   0.68794866   0.69259789   0.74051352   0.74586408
   0.76120006   0.78361126   0.79020634   0.84650013   0.86856693
   0.87589085   0.98248869   0.9975702    1.02032946]
nelec by numeric integration = 145.9999998030324
    CPU time for vxc     38.04 sec, wall time     15.80 sec
E1 = -4130.713859832397  Ecoul = 1910.391886171836  Exc = -124.73552024404523
cycle= 11 E= -835.671697468963  delta_E= -5.92e-09  |g|= 9.47e-05  |ddm|= 0.000417
    CPU time for cycle= 11     38.35 sec, wall time     15.86 sec
  HOMO = -0.0954976610172989  LUMO = -0.0336035806900438
  mo_energy =
[-10.03623127 -10.03478638 -10.03294987 -10.03138822 -10.02874637
 -10.02070666 -10.01870017 -10.01846702 -10.01687767 -10.01362596
 -10.01286145 -10.01202253 -10.01168926 -10.01082767 -10.01011795
 -10.00653469 -10.00293347 -10.00243112  -9.99975533  -9.99507823
  -9.99476941  -9.9842485   -0.87717464  -0.84187308  -0.82436548
  -0.79929356  -0.7625395   -0.75546956  -0.73461115  -0.71900865
  -0.69764597  -0.68606982  -0.64367556  -0.63668794  -0.59457926
  -0.58533487  -0.56903173  -0.56393225  -0.54218579  -0.51197605
  -0.49363199  -0.48042981  -0.47290738  -0.45942796  -0.44981104
  -0.44185009  -0.43105798  -0.41102402  -0.39509924  -0.39124099
  -0.38832916  -0.38250302  -0.36707876  -0.35891586  -0.35524038
  -0.34394333  -0.3352661   -0.32627574  -0.32326248  -0.31063352
  -0.29597128  -0.29295267  -0.28290111  -0.2724821   -0.26174953
  -0.24485547  -0.23256924  -0.22472804  -0.21036441  -0.17463267
  -0.16858981  -0.15645225  -0.09549766  -0.03360358   0.03591021
   0.04285687   0.09313545   0.09929501   0.13404029   0.17068529
   0.18615894   0.21426006   0.23615494   0.23723403   0.28235383
   0.29473692   0.29748778   0.30178305   0.32302991   0.33072793
   0.33768697   0.34464452   0.35536568   0.37249765   0.4140845
   0.42356707   0.42714493   0.43483557   0.45529086   0.46833441
   0.47795557   0.49274993   0.49753163   0.51410941   0.52785395
   0.55827101   0.56730407   0.58526362   0.608083     0.63852769
   0.64442186   0.68795275   0.69260332   0.7405194    0.74586903
   0.76120728   0.78360828   0.79021253   0.84650712   0.86856456
   0.87589929   0.98249855   0.99758068   1.020325  ]
nelec by numeric integration = 145.99999980303105
    CPU time for vxc     38.56 sec, wall time     15.88 sec
E1 = -4130.713228154906  Ecoul = 1910.3912460603508  Exc = -124.73551181320241
cycle= 12 E= -835.671697472114  delta_E= -3.15e-09  |g|= 4e-05  |ddm|= 0.00021
    CPU time for cycle= 12     38.96 sec, wall time     15.95 sec
  HOMO = -0.0954997837359434  LUMO = -0.0336046559656963
  mo_energy =
[-10.03623292 -10.03478855 -10.03295715 -10.03139032 -10.02874955
 -10.02070593 -10.01869904 -10.01847015 -10.01687578 -10.01362697
 -10.01286243 -10.01202386 -10.01169146 -10.01082079 -10.01012023
 -10.00653555 -10.00293003 -10.00244184  -9.99975383  -9.99507522
  -9.99476946  -9.98424746  -0.87717603  -0.84187417  -0.82436677
  -0.79929458  -0.76254093  -0.75547022  -0.7346113   -0.71900859
  -0.69764612  -0.68607093  -0.6436771   -0.63668819  -0.59458021
  -0.58533544  -0.56903284  -0.56393349  -0.54218593  -0.51197583
  -0.49363303  -0.48043031  -0.4729077   -0.45942829  -0.44981119
  -0.44185047  -0.4310588   -0.41102554  -0.39510123  -0.39124216
  -0.38833021  -0.38250435  -0.36707789  -0.35891625  -0.35524091
  -0.34394381  -0.33526626  -0.32627636  -0.32326315  -0.31063383
  -0.29597196  -0.29295308  -0.28290123  -0.27248298  -0.26175043
  -0.24485594  -0.23257034  -0.22472805  -0.21036431  -0.17463238
  -0.16858976  -0.15645232  -0.09549978  -0.03360466   0.0359098
   0.04285623   0.09313496   0.09929506   0.1340399    0.17068547
   0.18615767   0.21426086   0.23615538   0.23723246   0.28235392
   0.29473665   0.29748715   0.30178213   0.32303129   0.33072624
   0.33768583   0.34464388   0.35536558   0.37249679   0.41408481
   0.42356636   0.42714308   0.43483342   0.45529096   0.46833459
   0.47795594   0.49275008   0.49753065   0.51410808   0.52785237
   0.55827104   0.5673042    0.5852636    0.60807968   0.63852738
   0.64442039   0.68795343   0.69260173   0.74051819   0.7458668
   0.7612062    0.78360859   0.79021227   0.84650509   0.86856601
   0.87589839   0.98249732   0.99757796   1.02032436]
nelec by numeric integration = 145.99999980302414
    CPU time for vxc     39.20 sec, wall time     16.21 sec
E1 = -4130.713397816466  Ecoul = 1910.3914166919978  Exc = -124.73551278404378
cycle= 13 E= -835.671697472868  delta_E= -7.54e-10  |g|= 1.29e-05  |ddm|= 0.000107
    CPU time for cycle= 13     39.77 sec, wall time     16.30 sec
  HOMO = -0.0954996629074974  LUMO = -0.0336043370846673
  mo_energy =
[-10.03623167 -10.03478983 -10.03295674 -10.03139024 -10.02874933
 -10.02070582 -10.01870124 -10.01846855 -10.01687458 -10.01362686
 -10.01286516 -10.01202445 -10.01169396 -10.0108219  -10.01012145
 -10.0065384  -10.00293203 -10.00243853  -9.99975634  -9.99507734
  -9.99476468  -9.9842492   -0.87717665  -0.84187484  -0.82436738
  -0.79929501  -0.76254084  -0.75547035  -0.73461215  -0.7190092
  -0.69764674  -0.68607101  -0.64367745  -0.63668782  -0.59458032
  -0.58533534  -0.56903296  -0.56393385  -0.54218638  -0.51197677
  -0.49363312  -0.48043074  -0.4729076   -0.45942867  -0.44981158
  -0.44185076  -0.43105888  -0.41102551  -0.3951011   -0.39124244
  -0.38833032  -0.38250463  -0.36707882  -0.3589164   -0.35524123
  -0.34394429  -0.33526618  -0.32627666  -0.32326344  -0.31063438
  -0.29597215  -0.29295308  -0.28290154  -0.27248313  -0.26175099
  -0.24485595  -0.23257031  -0.22472849  -0.21036472  -0.17463282
  -0.16859066  -0.1564528   -0.09549966  -0.03360434   0.03590906
   0.04285614   0.09313466   0.09929524   0.13403975   0.17068453
   0.18615712   0.21426078   0.23615452   0.23723221   0.28235316
   0.29473653   0.29748666   0.30178161   0.32302998   0.3307265
   0.33768551   0.34464409   0.3553663    0.37249665   0.41408422
   0.42356613   0.42714319   0.43483365   0.45529027   0.46833463
   0.47795532   0.49275032   0.49753055   0.51410798   0.5278522
   0.55827021   0.5673043    0.58526405   0.60808011   0.63852644
   0.64442044   0.68795366   0.69260127   0.74051776   0.74586693
   0.76120602   0.78360742   0.79021239   0.84650501   0.86856436
   0.87589813   0.98249668   0.99757714   1.02032263]
nelec by numeric integration = 145.9999998030257
    CPU time for vxc     38.51 sec, wall time     15.92 sec
E1 = -4130.713474135898  Ecoul = 1910.3914941567957  Exc = -124.73551392941616
cycle= 14 E= -835.671697472875  delta_E= -6.37e-12  |g|= 1.37e-05  |ddm|= 4.13e-05
    CPU time for cycle= 14     38.94 sec, wall time     15.99 sec
  HOMO = -0.0954998668649299  LUMO = -0.0336045862315945
  mo_energy =
[-10.03623197 -10.03478922 -10.03295621 -10.03139018 -10.02874913
 -10.02070631 -10.01870025 -10.01846891 -10.01687627 -10.01362737
 -10.01286435 -10.01202422 -10.01169309 -10.01082325 -10.01012137
 -10.00653742 -10.00293065 -10.00243943  -9.99975479  -9.99507697
  -9.9947689   -9.9842489   -0.87717635  -0.84187464  -0.82436725
  -0.79929499  -0.76254097  -0.75547055  -0.7346119   -0.71900901
  -0.69764666  -0.68607105  -0.64367744  -0.63668831  -0.59458034
  -0.58533561  -0.56903287  -0.56393371  -0.54218621  -0.51197653
  -0.49363319  -0.48043058  -0.47290789  -0.45942875  -0.44981165
  -0.44185078  -0.43105907  -0.41102555  -0.39510107  -0.39124234
  -0.38833019  -0.38250449  -0.36707864  -0.35891632  -0.35524109
  -0.34394419  -0.33526638  -0.32627664  -0.32326332  -0.31063417
  -0.29597204  -0.29295314  -0.28290153  -0.2724831   -0.26175083
  -0.24485615  -0.23257038  -0.22472852  -0.21036461  -0.17463275
  -0.16859053  -0.1564527   -0.09549987  -0.03360459   0.0359092
   0.042856     0.09313468   0.09929474   0.13403974   0.17068481
   0.18615723   0.21426132   0.2361548    0.23723229   0.2823534
   0.29473653   0.29748679   0.30178187   0.32303003   0.33072658
   0.33768569   0.34464375   0.35536557   0.37249672   0.41408435
   0.4235662    0.42714332   0.43483369   0.45529032   0.46833441
   0.47795547   0.49274987   0.49753059   0.51410803   0.52785233
   0.55827046   0.56730396   0.58526345   0.60808007   0.63852678
   0.64442042   0.68795315   0.6926014    0.74051788   0.74586696
   0.76120597   0.78360756   0.79021192   0.84650505   0.86856472
   0.87589804   0.98249692   0.99757766   1.02032307]
nelec by numeric integration = 145.9999998030262
    CPU time for vxc     38.11 sec, wall time     15.80 sec
E1 = -4130.713418598885  Ecoul = 1910.391438810989  Exc = -124.73551412068282
cycle= 15 E= -835.671697472936  delta_E= -6.09e-11  |g|= 4.16e-06  |ddm|= 2.3e-05
    CPU time for cycle= 15     38.60 sec, wall time     15.88 sec
  HOMO = -0.0955000802343166  LUMO = -0.0336048342674037
  mo_energy =
[-10.03623354 -10.03478906 -10.03295673 -10.03139107 -10.02875062
 -10.02070811 -10.01870079 -10.0184707  -10.01687549 -10.01362707
 -10.0128632  -10.01202469 -10.01169168 -10.01082107 -10.01012106
 -10.00653763 -10.0029321  -10.00244038  -9.99975545  -9.99507616
  -9.99476669  -9.98424756  -0.87717667  -0.84187477  -0.82436715
  -0.79929508  -0.76254127  -0.75547054  -0.73461193  -0.71900912
  -0.69764656  -0.68607134  -0.64367735  -0.63668831  -0.59458053
  -0.58533573  -0.56903331  -0.56393388  -0.54218642  -0.51197628
  -0.49363334  -0.48043073  -0.47290781  -0.45942865  -0.4498117
  -0.44185072  -0.43105898  -0.41102575  -0.39510159  -0.39124263
  -0.38833069  -0.38250491  -0.36707825  -0.35891649  -0.35524138
  -0.34394418  -0.33526633  -0.32627671  -0.32326364  -0.31063422
  -0.29597229  -0.29295328  -0.28290154  -0.27248328  -0.26175097
  -0.24485614  -0.23257057  -0.22472849  -0.21036479  -0.17463269
  -0.16859028  -0.15645265  -0.09550008  -0.03360483   0.03590931
   0.04285574   0.09313446   0.09929492   0.13403946   0.17068485
   0.18615723   0.2142608    0.2361551    0.23723211   0.28235353
   0.29473643   0.29748673   0.30178164   0.32303074   0.33072586
   0.3376853    0.34464365   0.35536577   0.37249624   0.41408451
   0.42356583   0.42714254   0.43483301   0.45529059   0.46833442
   0.4779555    0.4927501    0.49753039   0.51410744   0.52785222
   0.55827058   0.56730395   0.58526366   0.60807957   0.63852664
   0.6444198    0.68795326   0.6926012    0.7405176    0.74586628
   0.76120584   0.78360801   0.79021213   0.84650445   0.8685655
   0.87589801   0.9824967    0.99757728   1.02032393]
nelec by numeric integration = 145.99999980302454
    CPU time for vxc     38.47 sec, wall time     16.00 sec
E1 = -4130.713478161118  Ecoul = 1910.3914980793961  Exc = -124.73551382682817
Extra cycle  E= -835.671697472906  delta_E= 2.96e-11  |g|= 9.55e-06  |ddm|= 2.23e-05
    CPU time for scf_cycle    669.74 sec, wall time    274.46 sec
    CPU time for SCF    669.74 sec, wall time    274.46 sec
converged SCF energy = -835.671697472906
nelec by numeric integration = 145.99999980302454
    CPU time for vxc     38.37 sec, wall time     15.94 sec
 ** Mulliken pop  **
pop of  0 C 1s            1.99077
pop of  0 C 2s            1.10835
pop of  0 C 2px           0.98985
pop of  0 C 2py           0.94901
pop of  0 C 2pz           0.95885
pop of  1 C 1s            1.99008
pop of  1 C 2s            1.00858
pop of  1 C 2px           1.03340
pop of  1 C 2py           1.01848
pop of  1 C 2pz           1.01719
pop of  2 C 1s            1.99159
pop of  2 C 2s            1.22278
pop of  2 C 2px           0.96326
pop of  2 C 2py           0.93984
pop of  2 C 2pz           0.91891
pop of  3 C 1s            1.99141
pop of  3 C 2s            1.12603
pop of  3 C 2px           0.98796
pop of  3 C 2py           0.95517
pop of  3 C 2pz           0.99737
pop of  4 C 1s            1.99056
pop of  4 C 2s            1.09722
pop of  4 C 2px           0.99619
pop of  4 C 2py           0.96574
pop of  4 C 2pz           1.01573
pop of  5 C 1s            1.99130
pop of  5 C 2s            1.12401
pop of  5 C 2px           0.98180
pop of  5 C 2py           0.95715
pop of  5 C 2pz           0.97173
pop of  6 C 1s            1.99092
pop of  6 C 2s            1.10513
pop of  6 C 2px           1.01927
pop of  6 C 2py           1.05165
pop of  6 C 2pz           0.96576
pop of  7 C 1s            1.99128
pop of  7 C 2s            1.21430
pop of  7 C 2px           0.96632
pop of  7 C 2py           0.95916
pop of  7 C 2pz           0.94772
pop of  8 C 1s            1.99048
pop of  8 C 2s            1.05298
pop of  8 C 2px           1.01101
pop of  8 C 2py           1.00386
pop of  8 C 2pz           0.99107
pop of  9 C 1s            1.99060
pop of  9 C 2s            1.12642
pop of  9 C 2px           1.00113
pop of  9 C 2py           0.93445
pop of  9 C 2pz           0.93839
pop of  10 C 1s           1.99122
pop of  10 C 2s           1.19571
pop of  10 C 2px          0.98374
pop of  10 C 2py          0.91262
pop of  10 C 2pz          0.98773
pop of  11 C 1s           1.99096
pop of  11 C 2s           1.18379
pop of  11 C 2px          0.98821
pop of  11 C 2py          0.92309
pop of  11 C 2pz          0.97134
pop of  12 C 1s           1.99068
pop of  12 C 2s           1.12826
pop of  12 C 2px          0.97306
pop of  12 C 2py          0.96794
pop of  12 C 2pz          0.93553
pop of  13 C 1s           1.99049
pop of  13 C 2s           1.11223
pop of  13 C 2px          1.01161
pop of  13 C 2py          0.96253
pop of  13 C 2pz          0.94031
pop of  14 C 1s           1.99062
pop of  14 C 2s           1.12243
pop of  14 C 2px          1.02356
pop of  14 C 2py          0.96747
pop of  14 C 2pz          1.00062
pop of  15 C 1s           1.99098
pop of  15 C 2s           1.14529
pop of  15 C 2px          0.97749
pop of  15 C 2py          0.95221
pop of  15 C 2pz          0.98554
pop of  16 C 1s           1.99140
pop of  16 C 2s           1.19902
pop of  16 C 2px          0.92995
pop of  16 C 2py          0.93241
pop of  16 C 2pz          0.92529
pop of  17 C 1s           1.99110
pop of  17 C 2s           1.10646
pop of  17 C 2px          0.99936
pop of  17 C 2py          0.97096
pop of  17 C 2pz          0.95141
pop of  18 C 1s           1.99113
pop of  18 C 2s           1.13775
pop of  18 C 2px          0.99212
pop of  18 C 2py          0.96297
pop of  18 C 2pz          0.99691
pop of  19 C 1s           1.99095
pop of  19 C 2s           1.03823
pop of  19 C 2px          1.01888
pop of  19 C 2py          1.02063
pop of  19 C 2pz          1.01827
pop of  20 C 1s           1.99130
pop of  20 C 2s           1.19133
pop of  20 C 2px          0.94980
pop of  20 C 2py          1.00065
pop of  20 C 2pz          0.97584
pop of  21 C 1s           1.99139
pop of  21 C 2s           1.18532
pop of  21 C 2px          0.97348
pop of  21 C 2py          0.97423
pop of  21 C 2pz          0.92184
pop of  22 H 1s           0.96226
pop of  23 H 1s           0.91842
pop of  24 H 1s           0.91161
pop of  25 H 1s           0.94891
pop of  26 H 1s           0.87871
pop of  27 H 1s           0.90785
pop of  28 H 1s           0.90044
pop of  29 H 1s           0.90622
pop of  30 H 1s           0.90789
pop of  31 H 1s           0.92130
pop of  32 H 1s           0.94774
pop of  33 H 1s           0.94811
pop of  34 H 1s           0.92553
pop of  35 H 1s           0.89516
 ** Mulliken atomic charges  **
charge of    0C =      0.00317
charge of    1C =     -0.06774
charge of    2C =     -0.03637
charge of    3C =     -0.05794
charge of    4C =     -0.06543
charge of    5C =     -0.02600
charge of    6C =     -0.13273
charge of    7C =     -0.07878
charge of    8C =     -0.04941
charge of    9C =      0.00901
charge of   10C =     -0.07103
charge of   11C =     -0.05739
charge of   12C =      0.00452
charge of   13C =     -0.01717
charge of   14C =     -0.10470
charge of   15C =     -0.05151
charge of   16C =      0.02193
charge of   17C =     -0.01928
charge of   18C =     -0.08088
charge of   19C =     -0.08696
charge of   20C =     -0.10891
charge of   21C =     -0.04626
charge of   22H =      0.03774
charge of   23H =      0.08158
charge of   24H =      0.08839
charge of   25H =      0.05109
charge of   26H =      0.12129
charge of   27H =      0.09215
charge of   28H =      0.09956
charge of   29H =      0.09378
charge of   30H =      0.09211
charge of   31H =      0.07870
charge of   32H =      0.05226
charge of   33H =      0.05189
charge of   34H =      0.07447
charge of   35H =      0.10484
Dipole moment(X, Y, Z, Debye):  0.31477,  0.00295, -0.08149
nelec by numeric integration = 145.99999980302454
    CPU time for vxc     37.48 sec, wall time     15.88 sec
E1 = -4130.713478161118  Ecoul = 1910.3914980793957  Exc = -124.73551382682815
nelec by numeric integration = 145.99999980302454
    CPU time for vxc     38.46 sec, wall time     15.97 sec
E1 = -4130.713478161118  Ecoul = 1910.391498079396  Exc = -124.73551382682815
