System: uname_result(system='Linux', node='cosmopc18', release='5.15.0-97-generic', version='#107-Ubuntu SMP Wed Feb 7 13:26:48 UTC 2024', machine='x86_64')  Threads 4
Python 3.11.8 (main, Feb 26 2024, 21:39:34) [GCC 11.2.0]
numpy 1.26.4  scipy 1.11.4
Date: Tue Apr  9 17:15:01 2024
PySCF version 2.3.0
PySCF path  /home/saade/miniconda3/envs/tutorial/lib/python3.11/site-packages/pyscf

[ENV] PYSCFAD_BACKEND torch
[CONFIG] conf_file None
[INPUT] verbose = 5
[INPUT] max_memory = 4000 
[INPUT] num. atoms = 36
[INPUT] num. electrons = 146
[INPUT] charge = 0
[INPUT] spin (= nelec alpha-beta = 2S) = 0
[INPUT] symmetry False subgroup None
[INPUT] Mole.unit = angstrom
[INPUT] Symbol           X                Y                Z      unit          X                Y                Z       unit  Magmom
[INPUT]  1 C      0.104221000000   3.649960000000   0.581369000000 AA    0.196949146428   6.897424765617   1.098628187312 Bohr   0.0
[INPUT]  2 C     -0.048556000000   3.470314000000  -0.865375000000 AA   -0.091757541704   6.557943026244  -1.635321745045 Bohr   0.0
[INPUT]  3 C     -0.064378000000   5.067914000000   1.492120000000 AA   -0.121656788447   9.576969482849   2.819698144986 Bohr   0.0
[INPUT]  4 C      0.157140000000   2.523184000000   1.480993000000 AA    0.296951563214   4.768126721885   2.798671162398 Bohr   0.0
[INPUT]  5 C      0.054992000000   4.832990000000  -1.345910000000 AA    0.103919819042   9.133027462762  -2.543401288313 Bohr   0.0
[INPUT]  6 C      0.109992000000   2.500070000000  -1.479180000000 AA    0.207854755893   4.724447592241  -2.795245088934 Bohr   0.0
[INPUT]  7 C     -0.043692000000   6.017600000000  -0.648783000000 AA   -0.082565913834  11.371615927183  -1.226022184274 Bohr   0.0
[INPUT]  8 C      0.154315000000   6.364100000000   0.720870000000 AA    0.291613086912  12.026406029345   1.362246871415 Bohr   0.0
[INPUT]  9 C     -0.123304000000   1.150986000000   0.717326000000 AA   -0.233010790063   2.175048313209   1.355549682030 Bohr   0.0
[INPUT] 10 C      0.189887000000   1.192440000000  -0.805456000000 AA    0.358834424615   2.253385019976  -1.522091245388 Bohr   0.0
[INPUT] 11 C     -0.131239000000  -0.028838000000   1.455008000000 AA   -0.248005766862  -0.054495921980   2.749566629051 Bohr   0.0
[INPUT] 12 C      0.091110000000   0.049957000000  -1.372509000000 AA    0.172172947209   0.094405048005  -2.593666113501 Bohr   0.0
[INPUT] 13 C      0.005635000000  -1.192657000000   0.613359000000 AA    0.010648606712  -2.253795090545   1.159080526037 Bohr   0.0
[INPUT] 14 C     -0.220848000000  -1.107572000000  -0.811597000000 AA   -0.417342235158  -2.093007743237  -1.533696053519 Bohr   0.0
[INPUT] 15 C     -0.034405000000  -2.414386000000   1.334619000000 AA   -0.065016027316  -4.562528298984   2.522064390641 Bohr   0.0
[INPUT] 16 C     -0.007513000000  -2.388987000000  -1.463222000000 AA   -0.014197512374  -4.514531145146  -2.765088839438 Bohr   0.0
[INPUT] 17 C     -0.098869000000  -3.790832000000   0.790853000000 AA   -0.186835332210  -7.163634264237   1.494495574791 Bohr   0.0
[INPUT] 18 C     -0.083940000000  -3.782321000000  -0.906942000000 AA   -0.158623610896  -7.147550805191  -1.713871990865 Bohr   0.0
[INPUT] 19 C      0.020626000000  -4.878350000000   1.372209000000 AA    0.038977491045  -9.218745439772   2.593099195663 Bohr   0.0
[INPUT] 20 C     -0.076195000000  -4.948296000000  -1.291325000000 AA   -0.143987682061  -9.350924223281  -2.440250587804 Bohr   0.0
[INPUT] 21 C      0.019380000000  -6.189372000000   0.592336000000 AA    0.036622892294 -11.696217963052   1.119352813720 Bohr   0.0
[INPUT] 22 C     -0.017466000000  -6.137814000000  -0.545778000000 AA   -0.033005956492 -11.598787463521  -1.031370944813 Bohr   0.0
[INPUT] 23 H      0.032114000000   5.036214000000   2.410380000000 AA    0.060686664764   9.517065164700   4.554958056129 Bohr   0.0
[INPUT] 24 H     -0.113518000000   2.241168000000   2.314221000000 AA   -0.214517930208   4.235193719139   4.373243881717 Bohr   0.0
[INPUT] 25 H      0.051258000000   5.143320000000  -2.631127000000 AA    0.096863581693   9.719466170998  -4.972109428948 Bohr   0.0
[INPUT] 26 H     -0.080029000000   2.478040000000  -2.446183000000 AA   -0.151232892023   4.682816925717  -4.622615920567 Bohr   0.0
[INPUT] 27 H      0.039838000000   6.955453000000  -1.213608000000 AA    0.075282909350  13.143901242284  -2.293386742581 Bohr   0.0
[INPUT] 28 H      0.030304000000   7.065161000000   1.172127000000 AA    0.057266260479  13.351219315958   2.214999013208 Bohr   0.0
[INPUT] 29 H     -0.033138000000  -0.045243000000   2.469973000000 AA   -0.062621744316  -0.085496879054   4.667572505070 Bohr   0.0
[INPUT] 30 H      0.023767000000  -0.050426000000  -2.508705000000 AA    0.044913120803  -0.095291329557  -4.740765377327 Bohr   0.0
[INPUT] 31 H     -0.135941000000  -2.425520000000   2.402383000000 AA   -0.256891259099  -4.583568509655   4.539845916311 Bohr   0.0
[INPUT] 32 H      0.096685000000  -2.667828000000  -2.490738000000 AA    0.182708170354  -5.041464267446  -4.706812668047 Bohr   0.0
[INPUT] 33 H     -0.146487000000  -4.957578000000   2.387316000000 AA   -0.276820310809  -9.368464661169   4.511373412792 Bohr   0.0
[INPUT] 34 H      0.046810000000  -4.803564000000  -2.355499000000 AA    0.088458079891  -9.077420381820  -4.451247996687 Bohr   0.0
[INPUT] 35 H      0.062821000000  -7.081055000000   1.267310000000 AA    0.118714484871 -13.381254622982   2.394868814923 Bohr   0.0
[INPUT] 36 H     -0.024536000000  -7.255829000000  -1.192528000000 AA   -0.046366320192 -13.711529616677  -2.253551315875 Bohr   0.0
[INPUT] ---------------- BASIS SET ---------------- 
[INPUT] l, kappa, [nprim/nctr], expnt,             c_1 c_2 ...
[INPUT] H
[INPUT] 0    0    [3    /1   ]  3.42525091        0.15432897
                                0.62391373        0.53532814
                                0.1688554         0.44463454
[INPUT] C
[INPUT] 0    0    [3    /1   ]  71.616837         0.15432897
                                13.045096         0.53532814
                                3.5305122         0.44463454
[INPUT] 0    0    [3    /1   ]  2.9412494         -0.09996723
                                0.6834831         0.39951283
                                0.2222899         0.70011547
[INPUT] 1    0    [3    /1   ]  2.9412494         0.15591627
                                0.6834831         0.60768372
                                0.2222899         0.39195739

nuclear repulsion = 1491.05350044592
number of shells = 80
number of NR pGTOs = 372
number of NR cGTOs = 124
basis = sto3g
ecp = {}
CPU time:     66281.76
atom C rad-grids = 99, ang-grids = [ 50  50  50  50  50  50  50  50  50  50  50  50  50  50  50  50  50  50
  50  50  50  50  50  50  50  50  50  50  50  50  50  86  86  86  86  86
  86  86  86  86  86  86  86 434 434 434 434 434 434 434 434 434 590 590
 590 590 590 590 590 590 590 590 590 590 590 590 590 590 590 590 590 590
 590 590 590 590 590 590 590 434 434 434 434 434 434 434 434 434 434 434
 434 434 434 434 434 434 434 434 434]
atom H rad-grids = 99, ang-grids = [ 50  50  50  50  50  50  50  50  50  50  50  50  50  50  50  50  50  50
  50  50  50  50  50  50  50  50  50  50  86  86  86  86  86  86  86 434
 434 434 434 434 434 434 434 590 590 590 590 590 590 590 590 590 590 590
 590 590 590 590 590 590 590 590 590 590 590 590 590 590 590 434 434 434
 434 434 434 434 434 434 434 434 434 434 434 434 434 434 434 434 434 434
 434 434 434 434 434 434 434 434 434]
tot_boxes 5440, boxes in each direction [ 8 30 15]
Padding 0 grids
tot grids = 1157832


******** <class 'pyscf.dft.rks.RKS'> ********
method = RKS
initial guess = minao
damping factor = 0
level_shift factor = 0
DIIS = <class 'pyscf.scf.diis.CDIIS'>
diis_start_cycle = 1
diis_space = 8
SCF conv_tol = 1e-10
SCF conv_tol_grad = None
SCF max_cycles = 50
direct_scf = True
direct_scf_tol = 1e-13
chkfile to save SCF result = /home/saade/mlelec/tutorials/tmp37yriz_j
max_memory 4000 MB (current use 690 MB)
XC library pyscf.dft.libxc version 6.1.0
    S. Lehtola, C. Steigemann, M. J.T. Oliveira, and M. A.L. Marques.,  SoftwareX 7, 1–5 (2018)
XC functionals = b3lypg
    P. J. Stephens, F. J. Devlin, C. F. Chabalowski, and M. J. Frisch.,  J. Phys. Chem. 98, 11623 (1994)
radial grids: 
    Treutler-Ahlrichs [JCP 102, 346 (1995); DOI:10.1063/1.469408] (M4) radial grids
    
becke partition: Becke, JCP 88, 2547 (1988); DOI:10.1063/1.454033
pruning grids: <function nwchem_prune at 0x7f9db5616ca0>
grids dens level: 3
symmetrized grids: False
atomic radii adjust function: <function treutler_atomic_radii_adjust at 0x7f9db5617380>
User specified grid scheme (99, 590)
small_rho_cutoff = 1e-07
Set gradient conv threshold to 1e-05
Initial guess from minao.
nelec by numeric integration = 145.2659627601529
    CPU time for vxc     37.02 sec, wall time     15.52 sec
E1 = -4081.7576878477034  Ecoul = 1875.375551089658  Exc = -126.12239624694551
init E= -841.451032559066
cond(S) = 25.44214638881793
    CPU time for initialize scf     46.96 sec, wall time     17.90 sec
  HOMO = -0.207267805509699  LUMO = -0.157986312166461
  mo_energy =
[-10.15154228 -10.14266178 -10.12948835 -10.12829716 -10.12435417
 -10.12008066 -10.1134184  -10.11088371 -10.10936295 -10.10606376
 -10.10429057 -10.10401831 -10.10234296 -10.10183696 -10.10012564
 -10.09283325 -10.08796123 -10.08718595 -10.08491345 -10.07889341
 -10.07865186 -10.07718408  -1.09480473  -1.08057285  -1.04569551
  -0.969669    -0.95305833  -0.94887294  -0.93308363  -0.90056941
  -0.87087366  -0.83585381  -0.80107077  -0.77609513  -0.73403517
  -0.70540527  -0.69251482  -0.67963651  -0.65724662  -0.64513269
  -0.62174361  -0.58754894  -0.57744953  -0.5663872   -0.55601529
  -0.54066127  -0.51715369  -0.50351401  -0.49775042  -0.49233708
  -0.47819213  -0.47602245  -0.4694087   -0.45335725  -0.44437724
  -0.44183308  -0.42730364  -0.42442479  -0.41175721  -0.39706589
  -0.37432487  -0.36765478  -0.35633402  -0.35163726  -0.34358234
  -0.33732436  -0.32801661  -0.32346389  -0.30367448  -0.29308555
  -0.27644457  -0.23611489  -0.20726781  -0.15798631  -0.1183961
  -0.06535927  -0.05380719  -0.02042309  -0.01115928   0.01890326
   0.03526742   0.09343649   0.10237242   0.10976064   0.13221692
   0.13739254   0.14352641   0.16394819   0.1697866    0.18356725
   0.19546049   0.22598464   0.24079719   0.25649242   0.26221764
   0.27988607   0.29691599   0.3047281    0.33585525   0.34159413
   0.35780219   0.36153026   0.36285963   0.38699011   0.39211067
   0.42428234   0.45566324   0.4689182    0.48128458   0.49558318
   0.50663589   0.52596111   0.55071809   0.57922398   0.6109731
   0.63003448   0.65605658   0.6615399    0.70423536   0.71072381
   0.74427306   0.75017339   0.87787213   0.95494631]
nelec by numeric integration = 145.99999625371836
    CPU time for vxc     37.44 sec, wall time     15.56 sec
E1 = -4096.049692191731  Ecoul = 1894.1896603822372  Exc = -124.7839723802131
cycle= 1 E= -835.590503743782  delta_E= 5.86  |g|= 0.283  |ddm|= 9.28
    CPU time for cycle= 1     37.80 sec, wall time     15.62 sec
  HOMO = -0.0947111127416714  LUMO = -0.0137354174070344
  mo_energy =
[-10.08654572 -10.03760154 -10.02920121 -10.02509196 -10.01642949
 -10.01501093 -10.00959676 -10.00671837  -9.99121944  -9.98666959
  -9.98556748  -9.98512749  -9.98309085  -9.98156475  -9.97986465
  -9.97655712  -9.97012349  -9.95827543  -9.95809618  -9.95451033
  -9.94904794  -9.94227638  -0.83857326  -0.81907015  -0.80796336
  -0.76191986  -0.74914185  -0.73525039  -0.72751102  -0.70209129
  -0.69535523  -0.67195141  -0.64276715  -0.61873023  -0.59626138
  -0.58483956  -0.55300409  -0.54402051  -0.52821458  -0.50701091
  -0.49333396  -0.47568699  -0.46848886  -0.45768136  -0.44347382
  -0.42098751  -0.41072173  -0.4016949   -0.38897704  -0.38306445
  -0.37304243  -0.37252035  -0.35507467  -0.34631319  -0.33916461
  -0.33298741  -0.3269572   -0.32096111  -0.31288355  -0.30706457
  -0.28187425  -0.2611043   -0.25481267  -0.24939705  -0.24530167
  -0.23909621  -0.22552782  -0.21849867  -0.19195048  -0.18538413
  -0.17660032  -0.13793842  -0.09471111  -0.01373542   0.02285581
   0.06490546   0.09377577   0.13023242   0.14351278   0.17406505
   0.20933379   0.22314001   0.23468627   0.25031093   0.25843507
   0.28879944   0.30056801   0.32237204   0.33049452   0.3408693
   0.35215138   0.37300308   0.38070107   0.39521972   0.41674079
   0.4321436    0.43970562   0.45778841   0.46744506   0.48021612
   0.50015923   0.51005892   0.51245737   0.52266326   0.54267619
   0.58035509   0.60232304   0.6117654    0.62014269   0.62918039
   0.65506666   0.66746568   0.70326378   0.70754235   0.75899951
   0.78838277   0.79960933   0.82523454   0.86624868   0.87928663
   0.89321662   0.91773176   1.05578778   1.13550342]
nelec by numeric integration = 145.99999621981465
    CPU time for vxc     37.76 sec, wall time     15.64 sec
E1 = -4092.345598331946  Ecoul = 1890.3501356897611  Exc = -124.64395839141217
cycle= 2 E= -835.585920587672  delta_E= 0.00458  |g|= 0.318  |ddm|= 0.932
    CPU time for cycle= 2     38.28 sec, wall time     15.72 sec
  HOMO = -0.105996226207087  LUMO = -0.0217252623149433
  mo_energy =
[-10.03705706 -10.03002599 -10.02801893 -10.02488309 -10.02294578
 -10.02113925 -10.02039553 -10.01646791 -10.01548321 -10.01460919
 -10.00840589 -10.00778903 -10.00731033 -10.00698973 -10.00549743
 -10.00030135  -9.99783465  -9.99778668  -9.99674791  -9.99647848
  -9.97955725  -9.97217923  -0.85074012  -0.84310446  -0.8216346
  -0.7681215   -0.75597543  -0.75436879  -0.74190196  -0.72070736
  -0.69579068  -0.67712404  -0.64625249  -0.62754486  -0.5968419
  -0.57943999  -0.56578864  -0.55502213  -0.53888401  -0.52382367
  -0.50986476  -0.47954633  -0.47226249  -0.4659574   -0.456369
  -0.43866266  -0.42082097  -0.4067999   -0.40599627  -0.39885683
  -0.38610145  -0.37698276  -0.3648238   -0.35424046  -0.34965636
  -0.34588578  -0.33507799  -0.32821872  -0.32111555  -0.3095544
  -0.28709333  -0.27565499  -0.26776193  -0.25969483  -0.24876471
  -0.24353162  -0.23840322  -0.22879666  -0.20723378  -0.20244204
  -0.178497    -0.14159942  -0.10599623  -0.02172526   0.01941236
   0.07146741   0.08601108   0.12401685   0.12799824   0.16200795
   0.17793895   0.22518352   0.23712572   0.24383839   0.26405903
   0.27346401   0.28809852   0.31153971   0.31802634   0.32920866
   0.34311885   0.37034213   0.37995834   0.39608534   0.40196238
   0.415923     0.4318508    0.44381334   0.47276149   0.47995407
   0.49104078   0.49512792   0.506217     0.51779812   0.51839223
   0.56483597   0.59460929   0.6085416    0.6184705    0.62849802
   0.64326412   0.66117078   0.68770277   0.70724748   0.74696865
   0.77318436   0.78912486   0.80575891   0.85143578   0.85716625
   0.86367549   0.89803277   1.03238362   1.10398354]
nelec by numeric integration = 145.99999626506852
    CPU time for vxc     37.61 sec, wall time     15.67 sec
E1 = -4093.03899838767  Ecoul = 1891.0564061524458  Exc = -124.68093497172651
cycle= 3 E= -835.610026761026  delta_E= -0.0241  |g|= 0.185  |ddm|= 0.742
    CPU time for cycle= 3     38.15 sec, wall time     15.75 sec
  HOMO = -0.111895798436568  LUMO = -0.0281964743087774
  mo_energy =
[-10.04469407 -10.03773419 -10.03756691 -10.03156679 -10.02677005
 -10.02525671 -10.02514114 -10.02396054 -10.02350347 -10.02203225
 -10.02005407 -10.01789035 -10.01300121 -10.00897075 -10.00747387
 -10.00652219 -10.00651916 -10.00547161 -10.00512911 -10.00415079
 -10.0032008   -9.99549713  -0.85709435  -0.84989526  -0.82756183
  -0.77118228  -0.76422403  -0.75622     -0.74750023  -0.72376768
  -0.70431511  -0.67937238  -0.6520199   -0.63199971  -0.60688899
  -0.5855457   -0.5669459   -0.55860948  -0.54231935  -0.52751574
  -0.51405348  -0.48373832  -0.47817429  -0.4692587   -0.45836674
  -0.44349776  -0.42190294  -0.41273412  -0.40767975  -0.40112277
  -0.38958724  -0.38467977  -0.37115439  -0.35759712  -0.35640465
  -0.35368097  -0.34159279  -0.33288053  -0.32521416  -0.31506136
  -0.29244241  -0.27796255  -0.26991734  -0.26467207  -0.25459134
  -0.24798842  -0.24597702  -0.23632866  -0.2132751   -0.20661351
  -0.18728395  -0.14697614  -0.1118958   -0.02819647   0.01126838
   0.06443397   0.0796201    0.11642524   0.12445834   0.15371451
   0.177052     0.22256367   0.23175791   0.24037711   0.25856903
   0.26743723   0.28190327   0.30203191   0.31048849   0.32270924
   0.33461631   0.36430025   0.37046078   0.39326077   0.39858938
   0.41423287   0.42950888   0.43976105   0.46864499   0.47640853
   0.48719464   0.49367542   0.50374367   0.51100275   0.52106206
   0.56115999   0.59092718   0.60067568   0.61409125   0.62593072
   0.63431897   0.65754951   0.68652402   0.69870445   0.74449335
   0.76543555   0.78333379   0.79789625   0.85038194   0.85185543
   0.86543272   0.88478326   1.02609602   1.0965095 ]
nelec by numeric integration = 145.99999623477228
    CPU time for vxc     38.25 sec, wall time     15.77 sec
E1 = -4093.552782231076  Ecoul = 1891.5664328101084  Exc = -124.68871665767522
cycle= 4 E= -835.621565632718  delta_E= -0.0115  |g|= 0.0653  |ddm|= 0.387
    CPU time for cycle= 4     38.71 sec, wall time     15.85 sec
  HOMO = -0.112547413188552  LUMO = -0.0292610985172512
  mo_energy =
[-10.05044315 -10.03973815 -10.03792046 -10.0311459  -10.02970967
 -10.02955381 -10.02653599 -10.02189933 -10.01597387 -10.01594781
 -10.01442815 -10.01429505 -10.01281066 -10.01202852 -10.01072161
 -10.00968972 -10.00948953 -10.00879474 -10.00838176 -10.00786458
 -10.00583044 -10.0045034   -0.85774627  -0.84733377  -0.82857083
  -0.77285242  -0.76252531  -0.75758156  -0.74794499  -0.72464534
  -0.7058303   -0.68161874  -0.65229428  -0.63407064  -0.60559605
  -0.58761828  -0.56856828  -0.55944203  -0.54249771  -0.52659814
  -0.51335957  -0.4841001   -0.4794003   -0.47022358  -0.45863455
  -0.44302903  -0.4225627   -0.41378031  -0.40775201  -0.40152931
  -0.38985661  -0.38498111  -0.37190506  -0.35849859  -0.35494921
  -0.35272133  -0.34285396  -0.33458848  -0.32650176  -0.31745883
  -0.29362847  -0.2776011   -0.27092071  -0.26483962  -0.2555102
  -0.24984375  -0.24858588  -0.2364144   -0.21214649  -0.20782196
  -0.18982987  -0.14917879  -0.11254741  -0.0292611    0.01048699
   0.06185925   0.07703129   0.11486905   0.12310221   0.15490252
   0.17650754   0.22511748   0.2298596    0.23724459   0.25701403
   0.26895217   0.28042001   0.30349009   0.31244627   0.32085556
   0.33534315   0.36220195   0.37237631   0.39070328   0.39650386
   0.41524477   0.4281923    0.44029345   0.46646391   0.47291595
   0.48746513   0.49219945   0.50080348   0.51285404   0.51899405
   0.56163252   0.58823953   0.60113148   0.6112182    0.6245259
   0.63481266   0.65484223   0.68389177   0.69655997   0.74292624
   0.76811093   0.78137087   0.79939304   0.85049293   0.85271947
   0.86289037   0.88927622   1.02492756   1.10011558]
nelec by numeric integration = 145.99999624771138
    CPU time for vxc     37.85 sec, wall time     15.59 sec
E1 = -4093.6662047995906  Ecoul = 1891.6790662137591  Exc = -124.689302492967
cycle= 5 E= -835.622940632874  delta_E= -0.00138  |g|= 0.0263  |ddm|= 0.151
    CPU time for cycle= 5     38.33 sec, wall time     15.67 sec
  HOMO = -0.112114885186549  LUMO = -0.0283665948543049
  mo_energy =
[-10.04792987 -10.03844011 -10.03582675 -10.02990458 -10.0288636
 -10.02778915 -10.02561439 -10.02014296 -10.01630578 -10.01521082
 -10.01409642 -10.01369193 -10.01283478 -10.01244074 -10.01164392
 -10.009156   -10.00890548 -10.0081383  -10.00720084 -10.00389072
 -10.00263821 -10.00127885  -0.8568193   -0.84628507  -0.82770138
  -0.77203124  -0.76232917  -0.75625632  -0.74706116  -0.72323766
  -0.70518486  -0.68071567  -0.6518571   -0.63264289  -0.60556911
  -0.58647177  -0.5676411   -0.55839036  -0.5420984   -0.52581286
  -0.51293433  -0.48332935  -0.47887346  -0.46991679  -0.45782098
  -0.44217879  -0.42184191  -0.41293657  -0.40686444  -0.40062949
  -0.38911286  -0.38458601  -0.37115651  -0.35740547  -0.35418797
  -0.35290731  -0.34189061  -0.33379712  -0.32598947  -0.31666188
  -0.29299431  -0.27694629  -0.27009064  -0.2643836   -0.25519177
  -0.24883941  -0.2471577   -0.23595549  -0.21139636  -0.20654829
  -0.18896804  -0.14828485  -0.11211489  -0.02836659   0.01109438
   0.0631621    0.07842589   0.11582366   0.12397935   0.15499024
   0.17806206   0.22519756   0.23093625   0.23854803   0.25726438
   0.26975512   0.28135589   0.30392108   0.31315307   0.32191999
   0.33566939   0.36332268   0.37183987   0.39130459   0.39782841
   0.41590718   0.42905345   0.44070325   0.46736987   0.47434741
   0.48786004   0.49368584   0.50118825   0.51236684   0.5205514
   0.56225775   0.58926231   0.60170528   0.61204242   0.6259099
   0.63537271   0.65633943   0.68536152   0.69804071   0.74362407
   0.76883114   0.78214871   0.7995984    0.851586     0.854148
   0.86239374   0.88942577   1.02625223   1.10122381]
nelec by numeric integration = 145.99999624472517
    CPU time for vxc     37.97 sec, wall time     15.72 sec
E1 = -4093.5784109710153  Ecoul = 1891.5892666105235  Exc = -124.68749088966881
cycle= 6 E= -835.623134804236  delta_E= -0.000194  |g|= 0.0146  |ddm|= 0.0627
    CPU time for cycle= 6     38.24 sec, wall time     15.77 sec
  HOMO = -0.111731817708736  LUMO = -0.0280142887113693
  mo_energy =
[-10.04667483 -10.03773185 -10.034062   -10.03025343 -10.02850109
 -10.02713688 -10.02528547 -10.02013449 -10.01611531 -10.01339378
 -10.01243678 -10.01225211 -10.01192543 -10.01163439 -10.01078328
 -10.01070719 -10.00815981 -10.00772439 -10.00635123 -10.00484569
 -10.00312584 -10.00204473  -0.85626372  -0.84619452  -0.82711585
  -0.7715202   -0.76185544  -0.75616167  -0.74683286  -0.72313758
  -0.70458858  -0.68030885  -0.6513506   -0.63254037  -0.60513595
  -0.5862081   -0.56734988  -0.55825767  -0.54169189  -0.52579892
  -0.51264045  -0.48308331  -0.47836811  -0.46947646  -0.45774581
  -0.44198396  -0.42177413  -0.41258734  -0.4067787   -0.40059727
  -0.38887265  -0.3841104   -0.37064893  -0.35727421  -0.35400519
  -0.35236177  -0.34158494  -0.33347094  -0.32552006  -0.31623217
  -0.29267308  -0.27687611  -0.26992344  -0.26396078  -0.25471697
  -0.24851011  -0.24699547  -0.2355321   -0.21122958  -0.20643871
  -0.18838337  -0.14803521  -0.11173182  -0.02801429   0.01147035
   0.06361547   0.07870566   0.11625534   0.12445688   0.15555633
   0.17798211   0.22513659   0.23133885   0.23886208   0.25773591
   0.26987257   0.28186997   0.30430854   0.31331079   0.32234993
   0.33614052   0.3638238    0.37246308   0.39184048   0.3980989
   0.41589584   0.42932316   0.4408591    0.46781017   0.47464867
   0.48813282   0.49358635   0.50197489   0.51277687   0.52040731
   0.56251075   0.58971318   0.60209711   0.61279632   0.62591331
   0.63562591   0.65654204   0.68553192   0.69823126   0.74418368
   0.76891764   0.78249984   0.80002812   0.8518959    0.85405104
   0.86323071   0.88981164   1.02697625   1.10114415]
nelec by numeric integration = 145.99999624362434
    CPU time for vxc     37.94 sec, wall time     15.73 sec
E1 = -4093.5443394484814  Ecoul = 1891.5543897329708  Exc = -124.68675845197032
cycle= 7 E= -835.623207721556  delta_E= -7.29e-05  |g|= 0.00349  |ddm|= 0.0252
    CPU time for cycle= 7     38.30 sec, wall time     15.79 sec
  HOMO = -0.111664015447027  LUMO = -0.0278848557873192
  mo_energy =
[-10.0470712  -10.0375036  -10.03433715 -10.03057937 -10.02842411
 -10.02710905 -10.02565837 -10.02027487 -10.0162708  -10.01347615
 -10.01235038 -10.011961   -10.01185229 -10.01126347 -10.01056847
 -10.01027997 -10.00802623 -10.00718045 -10.00666678 -10.00446423
 -10.00317195 -10.00229363  -0.85631915  -0.84633564  -0.82716321
  -0.77152458  -0.76182153  -0.75615638  -0.74674314  -0.72313275
  -0.70448454  -0.68032899  -0.65129709  -0.63245271  -0.60506832
  -0.58615866  -0.56733786  -0.55819676  -0.5417012   -0.52582958
  -0.51269068  -0.48310091  -0.47832814  -0.46943807  -0.45773561
  -0.44203274  -0.42170601  -0.41260504  -0.40679833  -0.40059622
  -0.38890332  -0.38405     -0.37069415  -0.35719344  -0.35407347
  -0.35239532  -0.3415599   -0.33346515  -0.32557187  -0.3162059
  -0.29265414  -0.2769236   -0.26992221  -0.26394011  -0.25472928
  -0.24844537  -0.24684601  -0.2355102   -0.21125883  -0.20642959
  -0.18831815  -0.1479935   -0.11166402  -0.02788486   0.01159254
   0.06367173   0.07878197   0.1163692    0.12440879   0.15552757
   0.17795425   0.22505164   0.23130964   0.23884527   0.25763805
   0.26979043   0.28179749   0.30428894   0.31326273   0.32249824
   0.33621378   0.36385491   0.37254612   0.39189827   0.39816104
   0.41585067   0.42935057   0.44087742   0.46783714   0.47480542
   0.48812609   0.49361357   0.5019847    0.51282806   0.52043097
   0.56248321   0.58985527   0.60210509   0.6127148    0.62595248
   0.6356913    0.65669578   0.68564684   0.69823865   0.74415144
   0.76883922   0.78272135   0.80005339   0.85186342   0.85397738
   0.8633256    0.88970669   1.02670765   1.10097719]
nelec by numeric integration = 145.99999624447761
    CPU time for vxc     37.89 sec, wall time     15.66 sec
E1 = -4093.5490484982984  Ecoul = 1891.5591506734024  Exc = -124.68681426244514
cycle= 8 E= -835.623211641416  delta_E= -3.92e-06  |g|= 0.00101  |ddm|= 0.00627
    CPU time for cycle= 8     38.47 sec, wall time     15.74 sec
  HOMO = -0.111688794487283  LUMO = -0.0278957049117405
  mo_energy =
[-10.04705336 -10.03748961 -10.03421898 -10.03059657 -10.0283229
 -10.02725065 -10.02547112 -10.02029817 -10.01618777 -10.01357573
 -10.01236787 -10.0120444  -10.01197985 -10.0111796  -10.01065838
 -10.01016416 -10.00790914 -10.00742401 -10.00676138 -10.00447363
 -10.00318133 -10.00233647  -0.85629208  -0.84634666  -0.8271537
  -0.77150714  -0.76186595  -0.75616127  -0.74679078  -0.72314849
  -0.70450269  -0.68029917  -0.65131044  -0.63247784  -0.60508225
  -0.58614795  -0.56734826  -0.55822418  -0.54171226  -0.52584626
  -0.51268111  -0.48308694  -0.47833296  -0.46943683  -0.45774871
  -0.44203549  -0.42172186  -0.4126031   -0.40681396  -0.40061639
  -0.38891037  -0.38405744  -0.37066745  -0.35721049  -0.35408569
  -0.35239656  -0.34156643  -0.33346549  -0.32554635  -0.31618797
  -0.29264038  -0.27692633  -0.26992244  -0.26395911  -0.25471946
  -0.24845395  -0.24689068  -0.23552578  -0.21129144  -0.20645307
  -0.18833087  -0.14797442  -0.11168879  -0.0278957    0.01160567
   0.06366652   0.07878503   0.11633908   0.1243973    0.15551047
   0.17793648   0.22505719   0.23133149   0.23890246   0.25769996
   0.26976544   0.28182935   0.30429851   0.31324086   0.32244758
   0.33618818   0.36386408   0.37251054   0.39192095   0.39814577
   0.41584516   0.42935639   0.44085922   0.46781499   0.47476826
   0.48812522   0.49358494   0.50199592   0.51279248   0.52042594
   0.56250844   0.58980152   0.6020976    0.61272987   0.62595166
   0.63568496   0.65663551   0.68559009   0.69826579   0.74413973
   0.76882133   0.78265522   0.80006902   0.8518785    0.85397849
   0.86333896   0.88967855   1.02679596   1.10095868]
nelec by numeric integration = 145.99999624416978
    CPU time for vxc     37.93 sec, wall time     15.64 sec
E1 = -4093.5489750620936  Ecoul = 1891.5590939609174  Exc = -124.68683133521665
cycle= 9 E= -835.623211990468  delta_E= -3.49e-07  |g|= 0.000407  |ddm|= 0.00221
    CPU time for cycle= 9     38.33 sec, wall time     15.70 sec
  HOMO = -0.111706551415713  LUMO = -0.0279013786121415
  mo_energy =
[-10.04706645 -10.03754667 -10.03425848 -10.03056952 -10.02840147
 -10.02720529 -10.02554766 -10.0202943  -10.01624052 -10.01356145
 -10.01240051 -10.01199554 -10.01198436 -10.01120605 -10.01065807
 -10.01020198 -10.00793628 -10.00741437 -10.0066856  -10.00450827
 -10.003178   -10.00230147  -0.85631928  -0.846343    -0.82717235
  -0.77151493  -0.7618643   -0.75616396  -0.74678895  -0.72315068
  -0.70451618  -0.68030818  -0.65132195  -0.63248272  -0.60509849
  -0.58616837  -0.56735515  -0.55822823  -0.54171725  -0.52584344
  -0.51269287  -0.48309677  -0.47833879  -0.46945031  -0.45775132
  -0.44203914  -0.42172492  -0.41260518  -0.40681474  -0.4006184
  -0.38891083  -0.38407476  -0.37069188  -0.35721922  -0.3540849
  -0.35240627  -0.34157352  -0.333467    -0.32555389  -0.31619568
  -0.29264911  -0.27692265  -0.2699256   -0.26396067  -0.25472242
  -0.2484628   -0.24689402  -0.23553011  -0.21128616  -0.20645347
  -0.18834601  -0.14799003  -0.11170655  -0.02790138   0.01159139
   0.06365697   0.0787746    0.11632969   0.12440166   0.15550899
   0.17793947   0.22506911   0.23131996   0.23888963   0.25769383
   0.26977375   0.28180816   0.30428453   0.31324299   0.32244217
   0.33617705   0.36384079   0.37250451   0.39191321   0.39813654
   0.41584562   0.42935236   0.44085763   0.46781637   0.4747631
   0.48812259   0.49358387   0.50199868   0.51279433   0.52041571
   0.56248552   0.58980257   0.60208612   0.61272314   0.625941
   0.63566968   0.65663701   0.68559363   0.69824723   0.74413908
   0.76882371   0.78264852   0.80003673   0.85186021   0.85397436
   0.86332106   0.88968598   1.02675775   1.10097079]
nelec by numeric integration = 145.9999962442307
    CPU time for vxc     38.44 sec, wall time     15.77 sec
E1 = -4093.550128699135  Ecoul = 1891.5602694348438  Exc = -124.68685323347336
cycle= 10 E= -835.62321205184  delta_E= -6.14e-08  |g|= 0.000104  |ddm|= 0.000697
    CPU time for cycle= 10     39.07 sec, wall time     15.87 sec
  HOMO = -0.111703911232079  LUMO = -0.0278984468971434
  mo_energy =
[-10.04704871 -10.0375317  -10.03425487 -10.03057518 -10.02837599
 -10.02719893 -10.02554325 -10.0202914  -10.01622945 -10.01355632
 -10.01240641 -10.01200608 -10.01199303 -10.01123863 -10.01063778
 -10.0102262  -10.00793472 -10.00739273 -10.00670905 -10.00449802
 -10.00317354 -10.00230311  -0.85631034  -0.84634372  -0.82716596
  -0.77152095  -0.76186173  -0.75616409  -0.74678434  -0.72314592
  -0.70451209  -0.68031288  -0.65131901  -0.63247975  -0.60509672
  -0.58616489  -0.56735286  -0.55822356  -0.54171726  -0.52584247
  -0.51269215  -0.48309672  -0.47834018  -0.4694487   -0.4577486
  -0.4420386   -0.42172026  -0.41260796  -0.40681171  -0.40061443
  -0.38890982  -0.38406851  -0.3706844   -0.35721434  -0.35408444
  -0.35240418  -0.34157202  -0.33346647  -0.32555362  -0.31619951
  -0.29264726  -0.27692387  -0.26992614  -0.26396015  -0.25472514
  -0.24846063  -0.24688704  -0.23552987  -0.2112844   -0.20645024
  -0.18834174  -0.14799376  -0.11170391  -0.02789845   0.01159109
   0.06366153   0.07877597   0.11633667   0.12439833   0.15550851
   0.17794119   0.22506608   0.23132046   0.23888775   0.25769221
   0.26977503   0.28181419   0.30428886   0.31324395   0.32245118
   0.33618385   0.36384961   0.37250741   0.39190495   0.39814017
   0.41584528   0.42935054   0.44085859   0.46781635   0.4747695
   0.48812272   0.49358876   0.50198254   0.51279346   0.52042208
   0.56249214   0.58980983   0.60209027   0.61272197   0.62594277
   0.63567237   0.65664136   0.68559875   0.69824535   0.74414039
   0.76882246   0.78265733   0.80004591   0.85186757   0.85397773
   0.86330648   0.8896829    1.02676687   1.10096908]
nelec by numeric integration = 145.9999962442212
    CPU time for vxc     37.84 sec, wall time     15.66 sec
E1 = -4093.5495414974644  Ecoul = 1891.5596855680085  Exc = -124.68685657136294
cycle= 11 E= -835.623212054895  delta_E= -3.05e-09  |g|= 6.63e-05  |ddm|= 0.000231
    CPU time for cycle= 11     38.24 sec, wall time     15.73 sec
  HOMO = -0.111703011272533  LUMO = -0.0278968040223771
  mo_energy =
[-10.04705551 -10.03753208 -10.03425741 -10.03056912 -10.02838129
 -10.02720085 -10.02554395 -10.02028654 -10.01623027 -10.01355505
 -10.01240001 -10.01199872 -10.01198672 -10.0112271  -10.01064883
 -10.01021924 -10.00794616 -10.00740045 -10.00670423 -10.00448764
 -10.00316944 -10.00229968  -0.85631314  -0.84634019  -0.82716756
  -0.77151884  -0.76186053  -0.75616126  -0.74678403  -0.72314526
  -0.70451253  -0.68031272  -0.65131788  -0.63247884  -0.60509615
  -0.58616659  -0.56735216  -0.55822298  -0.54171644  -0.52584022
  -0.51269093  -0.48309627  -0.47833969  -0.46944926  -0.4577475
  -0.44203704  -0.42171992  -0.41260705  -0.40681018  -0.40061324
  -0.38890913  -0.38406938  -0.37068677  -0.35721324  -0.35408212
  -0.35240424  -0.34157142  -0.33346697  -0.32555542  -0.31619898
  -0.29264871  -0.27692207  -0.26992471  -0.26395934  -0.25472554
  -0.24846139  -0.24688872  -0.2355289   -0.21128253  -0.20644973
  -0.18834308  -0.14799402  -0.11170301  -0.0278968    0.01159228
   0.06366055   0.07877637   0.11633502   0.12439988   0.15550982
   0.17794434   0.22506747   0.2313197    0.23888494   0.25768777
   0.26977671   0.28181126   0.30428834   0.31324675   0.32244837
   0.3361826    0.36384652   0.37250791   0.39190639   0.3981412
   0.41584772   0.42935162   0.44086135   0.4678168    0.47476859
   0.48812308   0.49359062   0.50198642   0.51279532   0.52042385
   0.56249088   0.58980816   0.60209095   0.61272042   0.62594366
   0.63567407   0.65664199   0.68560089   0.69824548   0.74413849
   0.76882603   0.78265451   0.80004471   0.85186737   0.85398003
   0.86331297   0.88968734   1.0267627    1.10097392]
nelec by numeric integration = 145.99999624422188
    CPU time for vxc     38.05 sec, wall time     15.73 sec
E1 = -4093.5497165874576  Ecoul = 1891.5598582418436  Exc = -124.68685415683518
cycle= 12 E= -835.623212056524  delta_E= -1.63e-09  |g|= 2.2e-05  |ddm|= 0.000128
    CPU time for cycle= 12     38.38 sec, wall time     15.78 sec
  HOMO = -0.111703761563186  LUMO = -0.0278967748786426
  mo_energy =
[-10.04705528 -10.03753279 -10.03425415 -10.03057095 -10.02838216
 -10.02719888 -10.02554534 -10.02028889 -10.01623308 -10.01355662
 -10.01240161 -10.01199872 -10.01198502 -10.01122567 -10.01064401
 -10.01021533 -10.00794215 -10.00739752 -10.0067034  -10.00449376
 -10.00317214 -10.00230136  -0.85631302  -0.84634127  -0.82716748
  -0.77151847  -0.76186066  -0.75616215  -0.74678368  -0.72314555
  -0.70451185  -0.68031155  -0.65131821  -0.63247881  -0.60509612
  -0.5861654   -0.56735246  -0.55822304  -0.54171636  -0.52584101
  -0.51269151  -0.4830962   -0.47833915  -0.46944889  -0.45774786
  -0.44203757  -0.42172033  -0.41260655  -0.40681081  -0.40061388
  -0.38890915  -0.38406936  -0.37068666  -0.35721407  -0.35408294
  -0.35240459  -0.34157123  -0.33346644  -0.32555481  -0.31619808
  -0.29264812  -0.27692274  -0.26992493  -0.26395948  -0.25472499
  -0.24846059  -0.24688763  -0.23552882  -0.21128349  -0.20644995
  -0.18834227  -0.14799295  -0.11170376  -0.02789677   0.01159287
   0.06366167   0.07877714   0.11633587   0.12440007   0.15550947
   0.1779429    0.22506696   0.23132035   0.23888661   0.25768898
   0.26977585   0.28181174   0.30428786   0.31324562   0.32244944
   0.33618246   0.36384746   0.37250757   0.3919075    0.39814089
   0.4158468    0.42935185   0.44086019   0.46781736   0.47476967
   0.488123     0.49358967   0.50198739   0.51279502   0.52042232
   0.56249038   0.58980946   0.60209036   0.61272154   0.62594378
   0.63567355   0.65664292   0.68560018   0.6982468    0.74413951
   0.76882506   0.78265605   0.80004377   0.85186665   0.85397866
   0.86331322   0.88968639   1.02676269   1.10097242]
nelec by numeric integration = 145.9999962442202
    CPU time for vxc     37.78 sec, wall time     15.65 sec
E1 = -4093.5496823122253  Ecoul = 1891.5598249063428  Exc = -124.68685509673051
cycle= 13 E= -835.623212056689  delta_E= -1.64e-10  |g|= 1.04e-05  |ddm|= 4.79e-05
    CPU time for cycle= 13     38.28 sec, wall time     15.72 sec
  HOMO = -0.111703875554495  LUMO = -0.0278966738056959
  mo_energy =
[-10.047055   -10.03753336 -10.03425367 -10.03057247 -10.02838218
 -10.02719893 -10.02554541 -10.02028969 -10.01623382 -10.01355751
 -10.01240413 -10.01200054 -10.01198496 -10.01122494 -10.01064416
 -10.01021568 -10.00794076 -10.00739712 -10.00670245 -10.00449097
 -10.00317108 -10.00230044  -0.85631307  -0.84634184  -0.82716755
  -0.77151818  -0.76186125  -0.75616181  -0.74678383  -0.72314542
  -0.70451201  -0.68031115  -0.65131837  -0.63247862  -0.60509664
  -0.58616539  -0.56735226  -0.55822313  -0.54171649  -0.52584123
  -0.51269173  -0.48309621  -0.4783391   -0.46944878  -0.45774795
  -0.44203771  -0.42172026  -0.41260656  -0.40681084  -0.40061397
  -0.38890924  -0.38406957  -0.37068669  -0.3572139   -0.3540833
  -0.35240497  -0.34157131  -0.33346633  -0.32555457  -0.31619789
  -0.29264804  -0.27692275  -0.26992482  -0.26395944  -0.25472491
  -0.24846048  -0.24688755  -0.23552904  -0.21128365  -0.20644988
  -0.18834239  -0.14799274  -0.11170388  -0.02789667   0.01159287
   0.06366164   0.07877734   0.1163358    0.12440022   0.15550914
   0.17794316   0.2250666    0.2313204    0.23888688   0.2576895
   0.26977566   0.28181177   0.3042876    0.31324518   0.32244945
   0.33618215   0.36384743   0.37250698   0.39190788   0.39814114
   0.41584657   0.42935205   0.4408599    0.4678174    0.47476983
   0.48812288   0.49358983   0.50198792   0.5127944    0.52042279
   0.56249035   0.58980951   0.60209016   0.61272185   0.62594387
   0.63567328   0.65664289   0.68560046   0.69824678   0.74413979
   0.76882434   0.78265612   0.80004346   0.85186672   0.85397888
   0.86331357   0.88968537   1.02676289   1.1009716 ]
nelec by numeric integration = 145.99999624421707
    CPU time for vxc     38.25 sec, wall time     15.76 sec
E1 = -4093.549689704676  Ecoul = 1891.5598327246676  Exc = -124.68685552262853
cycle= 14 E= -835.623212056713  delta_E= -2.41e-11  |g|= 7.37e-06  |ddm|= 2.91e-05
    CPU time for cycle= 14     38.74 sec, wall time     15.84 sec
  HOMO = -0.111703809039022  LUMO = -0.0278968774215816
  mo_energy =
[-10.04705555 -10.03753278 -10.03425563 -10.03057037 -10.0283821
 -10.02719987 -10.02554491 -10.02028861 -10.01623141 -10.01355524
 -10.01239966 -10.01199862 -10.01198658 -10.0112266  -10.01064541
 -10.01021639 -10.00794335 -10.00739804 -10.00670354 -10.00449487
 -10.00317244 -10.00230193  -0.85631311  -0.84634115  -0.82716762
  -0.77151882  -0.7618605   -0.75616242  -0.746784    -0.72314583
  -0.70451206  -0.68031207  -0.65131817  -0.63247928  -0.60509602
  -0.58616592  -0.56735278  -0.55822338  -0.54171658  -0.52584105
  -0.5126915   -0.48309634  -0.47833935  -0.46944904  -0.45774803
  -0.44203763  -0.42172042  -0.4126068   -0.406811    -0.40061407
  -0.38890931  -0.38406932  -0.3706867   -0.3572142   -0.35408284
  -0.35240426  -0.34157146  -0.33346665  -0.32555486  -0.31619841
  -0.29264823  -0.2769227   -0.26992511  -0.26395952  -0.25472499
  -0.24846104  -0.24688828  -0.23552887  -0.21128339  -0.20645026
  -0.18834264  -0.14799347  -0.11170381  -0.02789688   0.01159272
   0.0636612    0.07877663   0.11633551   0.12439977   0.15550969
   0.1779427    0.22506738   0.23132006   0.23888633   0.2576891
   0.26977601   0.28181156   0.30428822   0.31324581   0.32244897
   0.33618263   0.363847     0.37250798   0.39190704   0.39814049
   0.41584679   0.42935154   0.4408603    0.46781699   0.47476899
   0.48812306   0.49358929   0.50198682   0.51279527   0.520422
   0.56249048   0.58980878   0.60209051   0.61272116   0.62594335
   0.63567361   0.65664209   0.68559971   0.69824622   0.74413907
   0.76882516   0.78265544   0.80004408   0.85186668   0.85397864
   0.86331256   0.88968685   1.02676271   1.1009727 ]
nelec by numeric integration = 145.99999624422276
    CPU time for vxc     38.14 sec, wall time     15.72 sec
E1 = -4093.5497111903996  Ecoul = 1891.5598545785067  Exc = -124.68685589058518
Extra cycle  E= -835.623212056553  delta_E= 1.59e-10  |g|= 2.1e-05  |ddm|= 5.27e-05
    CPU time for scf_cycle    622.91 sec, wall time    254.25 sec
    CPU time for SCF    622.91 sec, wall time    254.25 sec
converged SCF energy = -835.623212056553
nelec by numeric integration = 145.99999624422276
    CPU time for vxc     37.94 sec, wall time     15.77 sec
 ** Mulliken pop  **
pop of  0 C 1s            1.99131
pop of  0 C 2s            1.20651
pop of  0 C 2px           0.95816
pop of  0 C 2py           0.91054
pop of  0 C 2pz           0.90225
pop of  1 C 1s            1.99081
pop of  1 C 2s            1.04817
pop of  1 C 2px           1.01320
pop of  1 C 2py           1.00581
pop of  1 C 2pz           0.96425
pop of  2 C 1s            1.99177
pop of  2 C 2s            1.23595
pop of  2 C 2px           0.94983
pop of  2 C 2py           0.91528
pop of  2 C 2pz           0.99020
pop of  3 C 1s            1.99139
pop of  3 C 2s            1.18377
pop of  3 C 2px           0.97261
pop of  3 C 2py           0.95492
pop of  3 C 2pz           1.01692
pop of  4 C 1s            1.99131
pop of  4 C 2s            1.19057
pop of  4 C 2px           1.00532
pop of  4 C 2py           0.90618
pop of  4 C 2pz           0.93546
pop of  5 C 1s            1.99083
pop of  5 C 2s            1.06959
pop of  5 C 2px           1.02572
pop of  5 C 2py           0.98949
pop of  5 C 2pz           1.04759
pop of  6 C 1s            1.99080
pop of  6 C 2s            1.15184
pop of  6 C 2px           0.99267
pop of  6 C 2py           0.98050
pop of  6 C 2pz           0.95254
pop of  7 C 1s            1.99129
pop of  7 C 2s            1.14397
pop of  7 C 2px           1.01208
pop of  7 C 2py           1.01229
pop of  7 C 2pz           0.99148
pop of  8 C 1s            1.99135
pop of  8 C 2s            1.20892
pop of  8 C 2px           0.94577
pop of  8 C 2py           0.93408
pop of  8 C 2pz           0.91084
pop of  9 C 1s            1.99075
pop of  9 C 2s            1.12664
pop of  9 C 2px           0.98524
pop of  9 C 2py           0.95072
pop of  9 C 2pz           0.94028
pop of  10 C 1s           1.99074
pop of  10 C 2s           1.15148
pop of  10 C 2px          1.00734
pop of  10 C 2py          0.95755
pop of  10 C 2pz          0.99646
pop of  11 C 1s           1.99068
pop of  11 C 2s           1.09251
pop of  11 C 2px          0.99837
pop of  11 C 2py          0.98897
pop of  11 C 2pz          1.00789
pop of  12 C 1s           1.99064
pop of  12 C 2s           1.14209
pop of  12 C 2px          0.98130
pop of  12 C 2py          0.94262
pop of  12 C 2pz          0.93718
pop of  13 C 1s           1.99046
pop of  13 C 2s           1.12432
pop of  13 C 2px          1.00815
pop of  13 C 2py          0.94780
pop of  13 C 2pz          0.94011
pop of  14 C 1s           1.99097
pop of  14 C 2s           1.17895
pop of  14 C 2px          0.97960
pop of  14 C 2py          0.93241
pop of  14 C 2pz          0.98276
pop of  15 C 1s           1.99103
pop of  15 C 2s           1.18283
pop of  15 C 2px          0.98759
pop of  15 C 2py          0.91553
pop of  15 C 2pz          0.98579
pop of  16 C 1s           1.99132
pop of  16 C 2s           1.14190
pop of  16 C 2px          0.95847
pop of  16 C 2py          0.95726
pop of  16 C 2pz          0.96640
pop of  17 C 1s           1.99147
pop of  17 C 2s           1.12977
pop of  17 C 2px          0.97917
pop of  17 C 2py          0.97158
pop of  17 C 2pz          0.91984
pop of  18 C 1s           1.99085
pop of  18 C 2s           1.12330
pop of  18 C 2px          1.01329
pop of  18 C 2py          0.97033
pop of  18 C 2pz          1.00778
pop of  19 C 1s           1.99056
pop of  19 C 2s           1.08401
pop of  19 C 2px          1.02370
pop of  19 C 2py          0.99098
pop of  19 C 2pz          1.01423
pop of  20 C 1s           1.99128
pop of  20 C 2s           1.09064
pop of  20 C 2px          0.99557
pop of  20 C 2py          0.98073
pop of  20 C 2pz          1.02303
pop of  21 C 1s           1.99125
pop of  21 C 2s           1.08236
pop of  21 C 2px          1.00508
pop of  21 C 2py          0.96694
pop of  21 C 2pz          1.01842
pop of  22 H 1s           0.89701
pop of  23 H 1s           0.88307
pop of  24 H 1s           0.96222
pop of  25 H 1s           0.88207
pop of  26 H 1s           0.92880
pop of  27 H 1s           0.87975
pop of  28 H 1s           0.90239
pop of  29 H 1s           0.92443
pop of  30 H 1s           0.92468
pop of  31 H 1s           0.92073
pop of  32 H 1s           0.90948
pop of  33 H 1s           0.91261
pop of  34 H 1s           0.90914
pop of  35 H 1s           0.93823
 ** Mulliken atomic charges  **
charge of    0C =      0.03123
charge of    1C =     -0.02223
charge of    2C =     -0.08303
charge of    3C =     -0.11961
charge of    4C =     -0.02884
charge of    5C =     -0.12322
charge of    6C =     -0.06835
charge of    7C =     -0.15111
charge of    8C =      0.00904
charge of    9C =      0.00637
charge of   10C =     -0.10357
charge of   11C =     -0.07842
charge of   12C =      0.00616
charge of   13C =     -0.01084
charge of   14C =     -0.06468
charge of   15C =     -0.06276
charge of   16C =     -0.01535
charge of   17C =      0.00817
charge of   18C =     -0.10555
charge of   19C =     -0.10349
charge of   20C =     -0.08125
charge of   21C =     -0.06406
charge of   22H =      0.10299
charge of   23H =      0.11693
charge of   24H =      0.03778
charge of   25H =      0.11793
charge of   26H =      0.07120
charge of   27H =      0.12025
charge of   28H =      0.09761
charge of   29H =      0.07557
charge of   30H =      0.07532
charge of   31H =      0.07927
charge of   32H =      0.09052
charge of   33H =      0.08739
charge of   34H =      0.09086
charge of   35H =      0.06177
Dipole moment(X, Y, Z, Debye): -0.29074, -0.24692,  0.49502
nelec by numeric integration = 145.99999624422276
    CPU time for vxc     37.54 sec, wall time     15.57 sec
E1 = -4093.5497111903996  Ecoul = 1891.5598545785065  Exc = -124.68685589058516
nelec by numeric integration = 145.99999624422276
    CPU time for vxc     38.49 sec, wall time     15.86 sec
E1 = -4093.5497111903996  Ecoul = 1891.559854578507  Exc = -124.68685589058518
