System: uname_result(system='Linux', node='cosmopc18', release='5.15.0-97-generic', version='#107-Ubuntu SMP Wed Feb 7 13:26:48 UTC 2024', machine='x86_64')  Threads 4
Python 3.11.8 (main, Feb 26 2024, 21:39:34) [GCC 11.2.0]
numpy 1.26.4  scipy 1.11.4
Date: Tue Apr  9 17:20:06 2024
PySCF version 2.3.0
PySCF path  /home/saade/miniconda3/envs/tutorial/lib/python3.11/site-packages/pyscf

[ENV] PYSCFAD_BACKEND torch
[CONFIG] conf_file None
[INPUT] verbose = 5
[INPUT] max_memory = 4000 
[INPUT] num. atoms = 36
[INPUT] num. electrons = 146
[INPUT] charge = 0
[INPUT] spin (= nelec alpha-beta = 2S) = 0
[INPUT] symmetry False subgroup None
[INPUT] Mole.unit = angstrom
[INPUT] Symbol           X                Y                Z      unit          X                Y                Z       unit  Magmom
[INPUT]  1 C      0.097508000000   3.641632000000   0.668840000000 AA    0.184263414954   6.881687126452   1.263924421154 Bohr   0.0
[INPUT]  2 C      0.082957000000   3.600719000000  -0.701443000000 AA    0.156766010116   6.804372761518  -1.325535161993 Bohr   0.0
[INPUT]  3 C      0.020853000000   4.752080000000   1.303235000000 AA    0.039406458876   8.980129722023   2.462757225948 Bohr   0.0
[INPUT]  4 C     -0.133992000000   2.422387000000   1.371150000000 AA   -0.253208182883   4.577647997707   2.591097975697 Bohr   0.0
[INPUT]  5 C     -0.032779000000   5.006338000000  -1.443398000000 AA   -0.061943332637   9.460607707003  -2.727626908745 Bohr   0.0
[INPUT]  6 C     -0.121686000000   2.544452000000  -1.378427000000 AA   -0.229953213194   4.808317417102  -2.604849512706 Bohr   0.0
[INPUT]  7 C      0.065936000000   6.133729000000  -0.830123000000 AA    0.124600981749  11.591067932302  -1.568705119702 Bohr   0.0
[INPUT]  8 C     -0.220511000000   6.060688000000   0.604937000000 AA   -0.416705397454  11.453040446438   1.143165252616 Bohr   0.0
[INPUT]  9 C     -0.031854000000   1.133316000000   0.754199000000 AA   -0.060195335972   2.141656852588   1.425229553421 Bohr   0.0
[INPUT] 10 C      0.176716000000   1.329791000000  -0.858932000000 AA    0.333944841829   2.512940792911  -1.623146239625 Bohr   0.0
[INPUT] 11 C      0.153990000000  -0.049978000000   1.401173000000 AA    0.290998925922  -0.094444732254   2.647833223135 Bohr   0.0
[INPUT] 12 C     -0.193992000000   0.072551000000  -1.468486000000 AA   -0.366591750357   0.137101520063  -2.775036357758 Bohr   0.0
[INPUT] 13 C      0.080039000000  -1.241126000000   0.620191000000 AA    0.151251789284  -2.345388226077   1.171991134920 Bohr   0.0
[INPUT] 14 C      0.117607000000  -1.170243000000  -0.871401000000 AA    0.222245020332  -2.211438769189  -1.646709234672 Bohr   0.0
[INPUT] 15 C      0.281064000000  -2.589491000000   1.481208000000 AA    0.531133983475  -4.893428792026   2.799077453515 Bohr   0.0
[INPUT] 16 C     -0.127677000000  -2.343184000000  -1.419493000000 AA   -0.241274562406  -4.427976019463  -2.682453005737 Bohr   0.0
[INPUT] 17 C      0.084410000000  -3.839897000000   0.681550000000 AA    0.159511782175  -7.256353676539   1.287942840197 Bohr   0.0
[INPUT] 18 C     -0.095136000000  -3.534705000000  -0.849308000000 AA   -0.179780984587  -6.679624381131  -1.604959515402 Bohr   0.0
[INPUT] 19 C      0.003649000000  -5.117120000000   1.372604000000 AA    0.006895610629  -9.669955346534   2.593845637483 Bohr   0.0
[INPUT] 20 C     -0.111180000000  -5.139916000000  -1.462486000000 AA   -0.210099750529  -9.713033543270  -2.763698001011 Bohr   0.0
[INPUT] 21 C      0.149740000000  -6.127055000000   0.553184000000 AA    0.282967589892 -11.578455900147   1.045366256491 Bohr   0.0
[INPUT] 22 C      0.060937000000  -5.854186000000  -0.857942000000 AA    0.115154240853 -11.062808222263  -1.621275410762 Bohr   0.0
[INPUT] 23 H      0.160581000000   5.021508000000   2.421264000000 AA    0.303454110809   9.489274852312   4.575525835269 Bohr   0.0
[INPUT] 24 H      0.064590000000   2.357606000000   2.492734000000 AA    0.122057410386   4.455229649631   4.710584561392 Bohr   0.0
[INPUT] 25 H     -0.226923000000   4.925170000000  -2.702814000000 AA   -0.428822321365   9.307222416924  -5.107578225640 Bohr   0.0
[INPUT] 26 H     -0.003032000000   2.396385000000  -2.286319000000 AA   -0.005729649610   4.528511339016  -4.320516743389 Bohr   0.0
[INPUT] 27 H     -0.016880000000   6.994357000000  -1.264923000000 AA   -0.031898576983  13.217419147435  -2.390358038663 Bohr   0.0
[INPUT] 28 H     -0.046260000000   7.008548000000   1.349156000000 AA   -0.087418730522  13.244236250868   2.549535339314 Bohr   0.0
[INPUT] 29 H     -0.002624000000  -0.187654000000   2.549294000000 AA   -0.004958641351  -0.354614666179   4.817467470997 Bohr   0.0
[INPUT] 30 H      0.109939000000   0.017764000000  -2.388911000000 AA    0.207754600409   0.033569094877  -4.514387525961 Bohr   0.0
[INPUT] 31 H     -0.054946000000  -2.569291000000   2.560627000000 AA   -0.103832891640  -4.855256324310   4.838883737167 Bohr   0.0
[INPUT] 32 H     -0.098593000000  -2.506731000000  -2.581034000000 AA   -0.186313767799  -4.737035057957  -4.877447378191 Bohr   0.0
[INPUT] 33 H     -0.114578000000  -4.927330000000   2.607042000000 AA   -0.216521039900  -9.311304225353   4.926595375238 Bohr   0.0
[INPUT] 34 H     -0.021345000000  -4.949292000000  -2.544083000000 AA   -0.040336204129  -9.352806390501  -4.807620108162 Bohr   0.0
[INPUT] 35 H      0.010333000000  -6.919806000000   1.387088000000 AA    0.019526540045 -13.076538175122   2.621216430671 Bohr   0.0
[INPUT] 36 H      0.111049000000  -7.098841000000  -1.266233000000 AA    0.209852196407 -13.414865291834  -2.392833579886 Bohr   0.0
[INPUT] ---------------- BASIS SET ---------------- 
[INPUT] l, kappa, [nprim/nctr], expnt,             c_1 c_2 ...
[INPUT] H
[INPUT] 0    0    [3    /1   ]  3.42525091        0.15432897
                                0.62391373        0.53532814
                                0.1688554         0.44463454
[INPUT] C
[INPUT] 0    0    [3    /1   ]  71.616837         0.15432897
                                13.045096         0.53532814
                                3.5305122         0.44463454
[INPUT] 0    0    [3    /1   ]  2.9412494         -0.09996723
                                0.6834831         0.39951283
                                0.2222899         0.70011547
[INPUT] 1    0    [3    /1   ]  2.9412494         0.15591627
                                0.6834831         0.60768372
                                0.2222899         0.39195739

nuclear repulsion = 1492.10318994545
number of shells = 80
number of NR pGTOs = 372
number of NR cGTOs = 124
basis = sto3g
ecp = {}
CPU time:     67025.77
atom C rad-grids = 99, ang-grids = [ 50  50  50  50  50  50  50  50  50  50  50  50  50  50  50  50  50  50
  50  50  50  50  50  50  50  50  50  50  50  50  50  86  86  86  86  86
  86  86  86  86  86  86  86 434 434 434 434 434 434 434 434 434 590 590
 590 590 590 590 590 590 590 590 590 590 590 590 590 590 590 590 590 590
 590 590 590 590 590 590 590 434 434 434 434 434 434 434 434 434 434 434
 434 434 434 434 434 434 434 434 434]
atom H rad-grids = 99, ang-grids = [ 50  50  50  50  50  50  50  50  50  50  50  50  50  50  50  50  50  50
  50  50  50  50  50  50  50  50  50  50  86  86  86  86  86  86  86 434
 434 434 434 434 434 434 434 590 590 590 590 590 590 590 590 590 590 590
 590 590 590 590 590 590 590 590 590 590 590 590 590 590 590 434 434 434
 434 434 434 434 434 434 434 434 434 434 434 434 434 434 434 434 434 434
 434 434 434 434 434 434 434 434 434]
tot_boxes 5270, boxes in each direction [ 8 29 15]
Padding 0 grids
tot grids = 1157832


******** <class 'pyscf.dft.rks.RKS'> ********
method = RKS
initial guess = minao
damping factor = 0
level_shift factor = 0
DIIS = <class 'pyscf.scf.diis.CDIIS'>
diis_start_cycle = 1
diis_space = 8
SCF conv_tol = 1e-10
SCF conv_tol_grad = None
SCF max_cycles = 50
direct_scf = True
direct_scf_tol = 1e-13
chkfile to save SCF result = /home/saade/mlelec/tutorials/tmp_su_zr59
max_memory 4000 MB (current use 690 MB)
XC library pyscf.dft.libxc version 6.1.0
    S. Lehtola, C. Steigemann, M. J.T. Oliveira, and M. A.L. Marques.,  SoftwareX 7, 1–5 (2018)
XC functionals = b3lypg
    P. J. Stephens, F. J. Devlin, C. F. Chabalowski, and M. J. Frisch.,  J. Phys. Chem. 98, 11623 (1994)
radial grids: 
    Treutler-Ahlrichs [JCP 102, 346 (1995); DOI:10.1063/1.469408] (M4) radial grids
    
becke partition: Becke, JCP 88, 2547 (1988); DOI:10.1063/1.454033
pruning grids: <function nwchem_prune at 0x7f9db5616ca0>
grids dens level: 3
symmetrized grids: False
atomic radii adjust function: <function treutler_atomic_radii_adjust at 0x7f9db5617380>
User specified grid scheme (99, 590)
small_rho_cutoff = 1e-07
Set gradient conv threshold to 1e-05
Initial guess from minao.
nelec by numeric integration = 145.27150012292483
    CPU time for vxc     37.28 sec, wall time     15.57 sec
E1 = -4083.9035486002185  Ecoul = 1876.5817688966401  Exc = -125.9697190061385
init E= -841.188308764272
cond(S) = 58.918941382308006
    CPU time for initialize scf     46.39 sec, wall time     17.81 sec
  HOMO = -0.21398420215697  LUMO = -0.148018599386193
  mo_energy =
[-1.02390668e+01 -1.02158347e+01 -1.01443900e+01 -1.01245769e+01
 -1.01170929e+01 -1.01140606e+01 -1.01130353e+01 -1.01111117e+01
 -1.01077026e+01 -1.00998391e+01 -1.00958955e+01 -1.00952010e+01
 -1.00951177e+01 -1.00911964e+01 -1.00911709e+01 -1.00887404e+01
 -1.00845208e+01 -1.00816763e+01 -1.00811892e+01 -1.00772288e+01
 -1.00723481e+01 -1.00630097e+01 -1.10079999e+00 -1.09262634e+00
 -1.04301353e+00 -9.89068265e-01 -9.57505580e-01 -9.48558547e-01
 -9.31690715e-01 -8.97320729e-01 -8.51727959e-01 -8.34751287e-01
 -7.98391386e-01 -7.47054849e-01 -7.16207174e-01 -6.90907201e-01
 -6.75091688e-01 -6.64985783e-01 -6.60680784e-01 -6.35841624e-01
 -5.91232062e-01 -5.83430781e-01 -5.71470071e-01 -5.54889935e-01
 -5.49334853e-01 -5.11798420e-01 -5.07724073e-01 -5.04106044e-01
 -4.98726815e-01 -4.91575371e-01 -4.79455092e-01 -4.73601361e-01
 -4.62711418e-01 -4.54931567e-01 -4.44504437e-01 -4.36767176e-01
 -4.25299387e-01 -4.06170608e-01 -3.95131347e-01 -3.85143028e-01
 -3.79774198e-01 -3.69727346e-01 -3.62399862e-01 -3.52023940e-01
 -3.44519291e-01 -3.28489179e-01 -3.24902093e-01 -3.13808916e-01
 -2.93552424e-01 -2.71498062e-01 -2.65699894e-01 -2.48608620e-01
 -2.13984202e-01 -1.48018599e-01 -1.01448643e-01 -7.30653728e-02
 -6.31452108e-02 -1.12063926e-02 -4.43973198e-03 -1.28297679e-03
  1.40958975e-02  4.13314855e-02  9.42356184e-02  1.35463938e-01
  1.39814982e-01  1.44335541e-01  1.55476619e-01  1.61151734e-01
  1.73132055e-01  1.87475628e-01  1.89608375e-01  1.97450594e-01
  2.12029702e-01  2.29194666e-01  2.49084995e-01  2.72678523e-01
  2.75015182e-01  2.94724433e-01  2.98108293e-01  3.03612437e-01
  3.09897607e-01  3.25199359e-01  3.63420586e-01  3.64952246e-01
  3.86989377e-01  4.11125746e-01  4.34453011e-01  4.39903029e-01
  4.63393264e-01  4.68070750e-01  4.96114902e-01  5.10620826e-01
  5.36795234e-01  5.51367679e-01  5.80221410e-01  5.97106197e-01
  6.17803649e-01  6.22097025e-01  6.47795816e-01  6.59169690e-01
  6.81854526e-01  7.05160366e-01  7.67071383e-01  1.37454114e+00]
nelec by numeric integration = 145.99999761382722
    CPU time for vxc     38.09 sec, wall time     15.65 sec
E1 = -4099.8704848173165  Ecoul = 1897.0828087294906  Exc = -124.71011341705184
cycle= 1 E= -835.394599559433  delta_E= 5.79  |g|= 0.33  |ddm|= 9.26
    CPU time for cycle= 1     38.45 sec, wall time     15.71 sec
  HOMO = -0.0895187588553431  LUMO = 0.0111953092836844
  mo_energy =
[-10.01927341 -10.0187892  -10.00878323 -10.00746243 -10.00458654
 -10.00433916  -9.99981825  -9.9989252   -9.99533672  -9.99293106
  -9.99054469  -9.97951506  -9.97928884  -9.97612297  -9.97558239
  -9.97169897  -9.97061414  -9.96441158  -9.95142539  -9.946095
  -9.916396    -9.88641433  -0.82139786  -0.81904924  -0.7870218
  -0.75978122  -0.74115837  -0.72862737  -0.72504182  -0.68844954
  -0.66356108  -0.65103236  -0.6252301   -0.58414656  -0.56406923
  -0.53984317  -0.53596303  -0.52823749  -0.5111542   -0.50237647
  -0.4672481   -0.45949436  -0.4482473   -0.42906077  -0.42517728
  -0.4002131   -0.39463518  -0.38618973  -0.38215838  -0.3647702
  -0.36015593  -0.35119162  -0.34417359  -0.33946289  -0.33285532
  -0.3291228   -0.30865677  -0.30194238  -0.29483064  -0.28783193
  -0.27711404  -0.26022668  -0.25409873  -0.24426326  -0.2380094
  -0.22687448  -0.20650268  -0.20376661  -0.18189532  -0.17207
  -0.14786136  -0.13596236  -0.08951876   0.01119531   0.04629299
   0.08172746   0.10034027   0.14044321   0.14141545   0.16019123
   0.17894428   0.20293112   0.24432981   0.26608261   0.26999408
   0.29579745   0.30384266   0.30695539   0.31869965   0.33439279
   0.33588468   0.34367772   0.35478896   0.38601626   0.40329024
   0.40984286   0.42130804   0.4321318    0.44059598   0.45391263
   0.47136247   0.49888711   0.5096836    0.52441337   0.55207648
   0.56023144   0.60438763   0.61418769   0.62193182   0.64282823
   0.66006346   0.68591703   0.70330948   0.72470373   0.73789461
   0.75893375   0.77917394   0.79762506   0.82365924   0.83570578
   0.8536866    0.8758663    0.95233308   1.60101533]
nelec by numeric integration = 145.99999764303888
    CPU time for vxc     38.65 sec, wall time     16.00 sec
E1 = -4093.4790337692793  Ecoul = 1890.5028119099957  Exc = -124.51702753987055
cycle= 2 E= -835.390059453709  delta_E= 0.00454  |g|= 0.365  |ddm|= 1.13
    CPU time for cycle= 2     39.11 sec, wall time     16.07 sec
  HOMO = -0.109554873779664  LUMO = -0.00926054243360292
  mo_energy =
[-1.00713840e+01 -1.00463509e+01 -1.00279991e+01 -1.00262633e+01
 -1.00260174e+01 -1.00225295e+01 -1.00173705e+01 -1.00153064e+01
 -1.00134833e+01 -1.00096328e+01 -1.00094858e+01 -1.00060738e+01
 -1.00026394e+01 -1.00024161e+01 -9.99752376e+00 -9.99692433e+00
 -9.99553604e+00 -9.99194766e+00 -9.98861814e+00 -9.98705645e+00
 -9.96828287e+00 -9.96221737e+00 -8.52771161e-01 -8.49682537e-01
 -8.17178315e-01 -7.80496539e-01 -7.56231958e-01 -7.54707479e-01
 -7.37773764e-01 -7.17009273e-01 -6.76937372e-01 -6.68915535e-01
 -6.40476340e-01 -6.00889017e-01 -5.78220021e-01 -5.61781592e-01
 -5.48562026e-01 -5.39973130e-01 -5.33806727e-01 -5.16614149e-01
 -4.82720918e-01 -4.73368174e-01 -4.62153410e-01 -4.52571844e-01
 -4.44117772e-01 -4.12320686e-01 -4.07218296e-01 -4.04822947e-01
 -3.97412448e-01 -3.80599670e-01 -3.79967712e-01 -3.75188591e-01
 -3.70441599e-01 -3.59946010e-01 -3.57273568e-01 -3.38484757e-01
 -3.27036970e-01 -3.13869697e-01 -3.06344135e-01 -2.95659016e-01
 -2.89327144e-01 -2.73840155e-01 -2.67773050e-01 -2.55849470e-01
 -2.50407101e-01 -2.46744343e-01 -2.35381837e-01 -2.19926645e-01
 -1.95725850e-01 -1.89900633e-01 -1.63427397e-01 -1.49133475e-01
 -1.09554874e-01 -9.26054243e-03  3.42041168e-02  6.81400296e-02
  7.45983885e-02  1.28707712e-01  1.31411892e-01  1.44254957e-01
  1.54195445e-01  1.88031542e-01  2.41123767e-01  2.53598966e-01
  2.77193926e-01  2.79484441e-01  2.87969336e-01  2.92993672e-01
  3.17596623e-01  3.19473118e-01  3.24133320e-01  3.33912329e-01
  3.41185537e-01  3.74267056e-01  3.88608048e-01  4.04695387e-01
  4.14982753e-01  4.29344389e-01  4.34404396e-01  4.38811255e-01
  4.56324841e-01  4.70551717e-01  4.92360853e-01  5.16115349e-01
  5.28554122e-01  5.60811012e-01  5.73655549e-01  5.84646429e-01
  6.03594718e-01  6.11535185e-01  6.35356804e-01  6.50883104e-01
  6.81838424e-01  6.91240171e-01  7.19310522e-01  7.41128940e-01
  7.62007872e-01  7.65149060e-01  7.91731925e-01  8.04322138e-01
  8.25581457e-01  8.50156879e-01  9.14385520e-01  1.54733617e+00]
nelec by numeric integration = 145.9999976153367
    CPU time for vxc     38.58 sec, wall time     15.83 sec
E1 = -4095.9388825726883  Ecoul = 1892.9749705729905  Exc = -124.56916355265619
cycle= 3 E= -835.429885606909  delta_E= -0.0398  |g|= 0.167  |ddm|= 0.78
    CPU time for cycle= 3     38.99 sec, wall time     15.89 sec
  HOMO = -0.115734658819238  LUMO = -0.0145074661179223
  mo_energy =
[-10.0866271  -10.06329752 -10.02874116 -10.02765122 -10.02386222
 -10.01555942 -10.01516532 -10.01441639 -10.01441352 -10.01427297
 -10.01177755 -10.01118131 -10.01040695 -10.01010858 -10.01002067
 -10.00581033 -10.00380127 -10.0028551  -10.00166307 -10.00126423
 -10.0008579   -9.99105659  -0.86205835  -0.85014702  -0.81801584
  -0.78386836  -0.76261765  -0.75929988  -0.74636784  -0.7161741
  -0.68439462  -0.67273735  -0.64522072  -0.60587144  -0.58392682
  -0.56313375  -0.55280285  -0.54479724  -0.53783692  -0.52118847
  -0.48622859  -0.47794638  -0.46702505  -0.45709425  -0.44790367
  -0.41617703  -0.40871561  -0.40704476  -0.40109706  -0.38751018
  -0.38061307  -0.37969622  -0.37381683  -0.36188427  -0.35789533
  -0.34624261  -0.33061202  -0.31905705  -0.30965168  -0.30317762
  -0.2965404   -0.2774153   -0.27448311  -0.26155828  -0.25580238
  -0.25395306  -0.23570725  -0.22678767  -0.19758724  -0.19538544
  -0.17046552  -0.15537376  -0.11573466  -0.01450747   0.02863375
   0.06016137   0.07234991   0.12437715   0.12523559   0.13901237
   0.14872763   0.17977468   0.23655739   0.25125229   0.2731111
   0.27771791   0.28339239   0.28922309   0.3124215    0.31589773
   0.32057705   0.32533529   0.33893487   0.36640135   0.38224164
   0.40127703   0.40779776   0.42153594   0.42873653   0.43183639
   0.45359868   0.46564066   0.48899132   0.50643772   0.52673727
   0.54644228   0.57633167   0.58579563   0.59619006   0.60786546
   0.63686058   0.64962402   0.67885633   0.68777598   0.71509882
   0.73489501   0.75776464   0.76311006   0.78988131   0.80207458
   0.82163782   0.84580881   0.91327681   1.5358674 ]
nelec by numeric integration = 145.99999763099098
    CPU time for vxc     38.17 sec, wall time     15.81 sec
E1 = -4096.196325667139  Ecoul = 1893.2367703539883  Exc = -124.58349571385695
cycle= 4 E= -835.439861081562  delta_E= -0.00998  |g|= 0.0406  |ddm|= 0.31
    CPU time for cycle= 4     38.70 sec, wall time     15.89 sec
  HOMO = -0.11607394700823  LUMO = -0.0145124737689924
  mo_energy =
[-10.08062473 -10.05588121 -10.03277282 -10.03041204 -10.02811559
 -10.01833362 -10.01670718 -10.01612534 -10.01575198 -10.01510893
 -10.0149815  -10.01398358 -10.01034694 -10.00860819 -10.00840491
 -10.00809275 -10.0073416  -10.00702792 -10.00324623 -10.00047418
  -9.99282874  -9.99083474  -0.8596569   -0.85189462  -0.81876188
  -0.784475    -0.76295819  -0.75974336  -0.74636463  -0.7168701
  -0.68415342  -0.67367339  -0.64538609  -0.60619541  -0.58434664
  -0.5640061   -0.55260142  -0.54414698  -0.53830446  -0.52128439
  -0.48623774  -0.47754127  -0.46712177  -0.45555276  -0.44717496
  -0.4167634   -0.40950283  -0.40801883  -0.40047543  -0.38632567
  -0.38146885  -0.37930145  -0.37416362  -0.36315822  -0.35886146
  -0.34531016  -0.33116067  -0.31930168  -0.31024909  -0.30330741
  -0.29637779  -0.27831586  -0.27527907  -0.26190194  -0.25657928
  -0.25418603  -0.2371329   -0.22766031  -0.19835602  -0.19520204
  -0.17071973  -0.15630807  -0.11607395  -0.01451247   0.02747828
   0.06054912   0.07117008   0.1243485    0.12524851   0.13834354
   0.14812844   0.17971995   0.23647519   0.25122017   0.27296785
   0.27715763   0.28285744   0.28903217   0.31157585   0.31606298
   0.32079647   0.32570272   0.33871019   0.36636788   0.38367009
   0.4002522    0.40769789   0.42364616   0.42888396   0.43224177
   0.4539569    0.46478445   0.48996566   0.50682707   0.52557374
   0.54733724   0.57525771   0.58498124   0.59628243   0.60725215
   0.63598435   0.64917874   0.67813511   0.68722635   0.71464709
   0.73470793   0.75634879   0.76188469   0.78922866   0.80106595
   0.8208643    0.84425608   0.91186671   1.5402125 ]
nelec by numeric integration = 145.99999762588374
    CPU time for vxc     38.22 sec, wall time     15.78 sec
E1 = -4096.29155289873  Ecoul = 1893.3310690993983  Exc = -124.58299885951713
cycle= 5 E= -835.440292713403  delta_E= -0.000432  |g|= 0.0214  |ddm|= 0.0784
    CPU time for cycle= 5     38.75 sec, wall time     15.86 sec
  HOMO = -0.115713053669886  LUMO = -0.0140744822947263
  mo_energy =
[-10.07809988 -10.05385835 -10.0309458  -10.02902853 -10.0269941
 -10.01590065 -10.01515002 -10.01509709 -10.01393558 -10.01353207
 -10.01279233 -10.01231542 -10.01008765 -10.00896947 -10.00778702
 -10.00724605 -10.00432414 -10.00401265 -10.00299855  -9.99893806
  -9.99566031  -9.99501749  -0.85776589  -0.85084447  -0.81821628
  -0.78364007  -0.76142354  -0.75909011  -0.74558028  -0.71663973
  -0.68375152  -0.6728202   -0.64484739  -0.60549609  -0.58361368
  -0.56327972  -0.55203403  -0.54354616  -0.53759303  -0.52051133
  -0.4856861   -0.47695679  -0.46613563  -0.45452021  -0.44698356
  -0.41603498  -0.40879125  -0.40752277  -0.40049413  -0.38523581
  -0.38096975  -0.3784639   -0.37340142  -0.36239814  -0.35843993
  -0.34524574  -0.33077953  -0.31899562  -0.3098016   -0.30274246
  -0.29582577  -0.27755031  -0.27440539  -0.26122943  -0.25554847
  -0.25372405  -0.23670442  -0.22679932  -0.19800281  -0.19422136
  -0.17025808  -0.1556371   -0.11571305  -0.01407448   0.02840671
   0.06067527   0.07195337   0.12524594   0.12634076   0.13906724
   0.14911294   0.18056493   0.23705971   0.25172401   0.27336379
   0.27743433   0.28374002   0.29023078   0.31232363   0.31709557
   0.32104352   0.32577715   0.33975213   0.36729276   0.38422127
   0.40105632   0.40846888   0.42325748   0.42920904   0.43278513
   0.4542866    0.46518441   0.49086875   0.50736661   0.5263887
   0.54793798   0.57577066   0.5850586    0.59714989   0.60763628
   0.63650666   0.64935268   0.67875813   0.68791896   0.71626632
   0.7354185    0.75758905   0.76277239   0.79006452   0.80191338
   0.82213062   0.84532234   0.91278255   1.54213595]
nelec by numeric integration = 145.99999762671746
    CPU time for vxc     38.10 sec, wall time     15.72 sec
E1 = -4096.198902841095  Ecoul = 1893.2359700226168  Exc = -124.58069002372568
cycle= 6 E= -835.440432896759  delta_E= -0.00014  |g|= 0.00669  |ddm|= 0.0354
    CPU time for cycle= 6     38.59 sec, wall time     15.79 sec
  HOMO = -0.115404510207999  LUMO = -0.0137143006084661
  mo_energy =
[-10.07915479 -10.05499083 -10.03049169 -10.02872721 -10.02622606
 -10.0151815  -10.01481819 -10.01466021 -10.014472   -10.01362406
 -10.01183683 -10.01160452 -10.00967283 -10.00875698 -10.00763827
 -10.00719682 -10.00493186 -10.00349957 -10.00257773  -9.99874986
  -9.99404215  -9.99381938  -0.85836231  -0.85048951  -0.81782043
  -0.7833681   -0.76156697  -0.7587903   -0.74535862  -0.71625862
  -0.68337442  -0.67255283  -0.64460035  -0.60523368  -0.58339739
  -0.56306159  -0.55184955  -0.54352704  -0.53740986  -0.52042047
  -0.48552925  -0.47691035  -0.46618338  -0.45483672  -0.44683059
  -0.41580889  -0.40860974  -0.40722663  -0.40023356  -0.38535881
  -0.38077939  -0.37853318  -0.3733802   -0.36208761  -0.35821966
  -0.34495518  -0.33043828  -0.31863532  -0.30950799  -0.3026187
  -0.29569234  -0.2773274   -0.27420967  -0.26100045  -0.25544303
  -0.25344808  -0.23623764  -0.22659267  -0.19768862  -0.19446756
  -0.16988469  -0.15531885  -0.11540451  -0.0137143    0.02871778
   0.06118505   0.07218551   0.12535472   0.1261564    0.13933947
   0.14922104   0.18072077   0.2372903    0.25169266   0.27349702
   0.2778908    0.28386396   0.29006201   0.31267793   0.31694975
   0.32125698   0.32628937   0.33961285   0.36743298   0.38420564
   0.40126207   0.40856906   0.42355975   0.42939682   0.4329023
   0.45471726   0.46558992   0.49065114   0.50772975   0.52673498
   0.54822201   0.5760857    0.5856359    0.59726737   0.60805455
   0.63687446   0.64960371   0.67908252   0.68819231   0.71607526
   0.73567731   0.75776678   0.7630699    0.79024577   0.80221894
   0.82208976   0.84565726   0.91309758   1.5412913 ]
nelec by numeric integration = 145.99999762702663
    CPU time for vxc     37.76 sec, wall time     15.60 sec
E1 = -4096.181062874366  Ecoul = 1893.2178489155085  Exc = -124.58042459240258
cycle= 7 E= -835.440448605815  delta_E= -1.57e-05  |g|= 0.0014  |ddm|= 0.0107
    CPU time for cycle= 7     38.47 sec, wall time     15.71 sec
  HOMO = -0.115397279951162  LUMO = -0.0137065110144144
  mo_energy =
[-10.07937348 -10.05514572 -10.03057101 -10.02879603 -10.02627752
 -10.01498376 -10.01496368 -10.01464039 -10.01418955 -10.01364111
 -10.01186966 -10.01183835 -10.00969459 -10.008714   -10.0074873
 -10.00712181 -10.00474069 -10.00377625 -10.00250484  -9.99855851
  -9.99394092  -9.9938189   -0.85841191  -0.85053382  -0.81782663
  -0.78335987  -0.76155152  -0.75882109  -0.74533698  -0.71623009
  -0.68340559  -0.67254175  -0.64457909  -0.60524271  -0.58337937
  -0.56307722  -0.55185655  -0.54352728  -0.537416    -0.52042584
  -0.48552412  -0.47691366  -0.46618131  -0.45485922  -0.44682462
  -0.4158034   -0.40862859  -0.40723846  -0.40023781  -0.38539425
  -0.38079942  -0.37856225  -0.37337608  -0.36211173  -0.35822391
  -0.34496845  -0.33043217  -0.31864082  -0.30949916  -0.30258935
  -0.29567962  -0.27732591  -0.27420284  -0.26099292  -0.25542694
  -0.25344155  -0.23628653  -0.22658216  -0.1976604   -0.19441998
  -0.16990732  -0.15530797  -0.11539728  -0.01370651   0.02872928
   0.06114817   0.07223968   0.12537438   0.12619028   0.13934195
   0.1492382    0.18073175   0.23728116   0.25170088   0.27349365
   0.27784311   0.28385574   0.29006003   0.31265667   0.31695448
   0.32125573   0.32625947   0.33962736   0.36745174   0.38417149
   0.40121642   0.40857384   0.42355067   0.42940293   0.4329095
   0.45472978   0.46558599   0.49063085   0.50772826   0.52669095
   0.54828203   0.57607879   0.58563876   0.59729651   0.60803691
   0.63686328   0.64964671   0.67907248   0.68817323   0.71607821
   0.73567845   0.75780232   0.76305955   0.79025481   0.80221457
   0.82214558   0.84563651   0.91307976   1.54117958]
nelec by numeric integration = 145.99999762697755
    CPU time for vxc     37.79 sec, wall time     15.62 sec
E1 = -4096.18469530348  Ecoul = 1893.2214729888567  Exc = -124.58041679426796
cycle= 8 E= -835.440449163446  delta_E= -5.58e-07  |g|= 0.000579  |ddm|= 0.00271
    CPU time for cycle= 8     38.32 sec, wall time     15.70 sec
  HOMO = -0.115397910701116  LUMO = -0.0136932668675205
  mo_energy =
[-10.07939124 -10.05513586 -10.03055079 -10.02875941 -10.0263037
 -10.01503633 -10.01497339 -10.01466731 -10.01419981 -10.01365374
 -10.01189405 -10.01186085 -10.00964088 -10.00861302 -10.00752255
 -10.00712676 -10.00476365 -10.00363186 -10.00246842  -9.99867794
  -9.99395525  -9.99390972  -0.85842646  -0.85052015  -0.81783911
  -0.78337379  -0.76157169  -0.75878851  -0.74533923  -0.71624562
  -0.68338042  -0.67255293  -0.64458161  -0.60523881  -0.58338828
  -0.56307209  -0.55186378  -0.5435366   -0.53741822  -0.5204266
  -0.48552872  -0.4769122   -0.46618404  -0.4548745   -0.44682242
  -0.41581499  -0.40861458  -0.40723804  -0.40023391  -0.38538977
  -0.38078885  -0.3785559   -0.37338518  -0.36209896  -0.35822829
  -0.34494718  -0.33044004  -0.31864779  -0.30950726  -0.3026044
  -0.29568263  -0.27732928  -0.27420189  -0.2609933   -0.25543684
  -0.25344279  -0.23626464  -0.2265858   -0.1976762   -0.19442724
  -0.16989144  -0.15532036  -0.11539791  -0.01369327   0.02871769
   0.06116075   0.07222316   0.12537363   0.12618749   0.13933947
   0.14923138   0.18074096   0.23727688   0.25169089   0.27348774
   0.27786224   0.28385167   0.29005147   0.31265553   0.31694391
   0.32125418   0.32626619   0.33961408   0.36744919   0.38417929
   0.4012648    0.40857561   0.4235649    0.42941327   0.432922
   0.45472585   0.46557592   0.49061971   0.50773999   0.52671361
   0.54825543   0.57607084   0.58561806   0.59728553   0.60804285
   0.63687358   0.64962436   0.67907342   0.68817468   0.71605652
   0.73568641   0.75779002   0.76306776   0.79024372   0.80219735
   0.82212654   0.84564693   0.91309015   1.54117092]
nelec by numeric integration = 145.99999762700833
    CPU time for vxc     37.81 sec, wall time     15.58 sec
E1 = -4096.183875156608  Ecoul = 1893.2206741475354  Exc = -124.5804381767542
cycle= 9 E= -835.440449240382  delta_E= -7.69e-08  |g|= 0.000373  |ddm|= 0.00146
    CPU time for cycle= 9     38.25 sec, wall time     15.65 sec
  HOMO = -0.115405723302788  LUMO = -0.0137013679180992
  mo_energy =
[-10.07937105 -10.0551181  -10.03055112 -10.02877867 -10.02629435
 -10.01506543 -10.01495881 -10.01467845 -10.01423364 -10.0136441
 -10.01186459 -10.01183845 -10.00967747 -10.0086747  -10.00751391
 -10.00711253 -10.00478041 -10.00369524 -10.00252244  -9.99862863
  -9.99394597  -9.99392493  -0.85842527  -0.85052614  -0.8178392
  -0.7833701   -0.76157885  -0.75880359  -0.74534311  -0.71624877
  -0.68339396  -0.67255509  -0.64458586  -0.60524514  -0.58338842
  -0.5630749   -0.55186787  -0.54354094  -0.53742123  -0.52043214
  -0.48552971  -0.47691689  -0.46618992  -0.45487473  -0.44682515
  -0.41581632  -0.40861796  -0.40723966  -0.40023845  -0.38539484
  -0.38079466  -0.37856279  -0.37339027  -0.36210528  -0.35822649
  -0.34495787  -0.33044063  -0.31864689  -0.30951026  -0.30259887
  -0.29568535  -0.27733065  -0.27420572  -0.26100095  -0.25544101
  -0.2534514   -0.23627475  -0.22658767  -0.19768031  -0.194434
  -0.1699032   -0.15532178  -0.11540572  -0.01370137   0.02871904
   0.06115336   0.07221943   0.12536904   0.12618477   0.13934018
   0.14922336   0.18073218   0.23727568   0.25168392   0.27349714
   0.27785638   0.28385331   0.29004666   0.31265926   0.31693863
   0.32125368   0.3262617    0.33960807   0.36744031   0.38417399
   0.40124901   0.40857401   0.42355682   0.42940416   0.43291347
   0.45472073   0.46557502   0.49061483   0.50772905   0.52670084
   0.54826165   0.57607275   0.58561901   0.59727813   0.60803544
   0.63686396   0.6496245    0.67907093   0.68817286   0.71604889
   0.73568152   0.75777832   0.7630567    0.79024283   0.80219989
   0.82212243   0.84564181   0.9130852    1.54118032]
nelec by numeric integration = 145.9999976270057
    CPU time for vxc     37.94 sec, wall time     15.66 sec
E1 = -4096.184808946966  Ecoul = 1893.2216169478477  Exc = -124.58044723783628
cycle= 10 E= -835.44044929151  delta_E= -5.11e-08  |g|= 7.43e-05  |ddm|= 0.000693
    CPU time for cycle= 10     38.36 sec, wall time     15.73 sec
  HOMO = -0.115407223584482  LUMO = -0.0137020647615065
  mo_energy =
[-10.07935953 -10.05511943 -10.0305627  -10.02877923 -10.02629648
 -10.01505904 -10.01495362 -10.01467028 -10.01422133 -10.01365264
 -10.01187469 -10.01185048 -10.00967797 -10.00867788 -10.00751837
 -10.00714139 -10.004774   -10.00369247 -10.00251563  -9.99863053
  -9.99394394  -9.9939165   -0.85841989  -0.8505328   -0.81784004
  -0.78337498  -0.76157327  -0.75880738  -0.74534479  -0.71624895
  -0.68339275  -0.67255606  -0.64458638  -0.60524592  -0.58338984
  -0.56307924  -0.55186556  -0.54353805  -0.53742241  -0.52043196
  -0.48553284  -0.47691725  -0.46618741  -0.45487264  -0.44682621
  -0.41581732  -0.40862066  -0.40724237  -0.4002378   -0.38539294
  -0.38079523  -0.37856174  -0.37338809  -0.36210914  -0.3582296
  -0.34495651  -0.33044134  -0.31864786  -0.30951061  -0.30259952
  -0.29568423  -0.27733275  -0.27420758  -0.26100044  -0.25544152
  -0.25344876  -0.23627757  -0.22658967  -0.19767997  -0.19443139
  -0.16990193  -0.15532185  -0.11540722  -0.01370206   0.02871827
   0.06115424   0.07222033   0.12536891   0.12618489   0.13933502
   0.14922555   0.18073165   0.2372758    0.2516889    0.27349372
   0.27785365   0.28385063   0.29004882   0.31265458   0.31694174
   0.32125433   0.32626271   0.33961133   0.36744335   0.38417596
   0.40124783   0.40857333   0.4235602    0.42940506   0.43291414
   0.4547211    0.46557454   0.49061829   0.50772979   0.52669966
   0.54826138   0.57606652   0.58561824   0.59728211   0.60803462
   0.63686236   0.64962387   0.67906704   0.68816712   0.71605369
   0.73567644   0.75778122   0.76305327   0.79023756   0.80219723
   0.82212403   0.84563654   0.91307663   1.54118505]
nelec by numeric integration = 145.9999976270038
    CPU time for vxc     38.37 sec, wall time     15.75 sec
E1 = -4096.184740656277  Ecoul = 1893.2215490802978  Exc = -124.58044766281388
cycle= 11 E= -835.440449293349  delta_E= -1.84e-09  |g|= 3.14e-05  |ddm|= 0.000152
    CPU time for cycle= 11     38.80 sec, wall time     15.82 sec
  HOMO = -0.115406718896689  LUMO = -0.0137010305592721
  mo_energy =
[-10.07936315 -10.05512205 -10.03055615 -10.02877774 -10.0262983
 -10.01505612 -10.01495898 -10.01467074 -10.01422694 -10.01365293
 -10.01186924 -10.01184657 -10.0096754  -10.00867004 -10.00751596
 -10.00713265 -10.00477715 -10.00369343 -10.00251564  -9.99862786
  -9.99394792  -9.99391745  -0.8584218   -0.85052976  -0.81784081
  -0.78337305  -0.76157395  -0.75880523  -0.74534317  -0.7162492
  -0.68339288  -0.67255541  -0.64458559  -0.6052455   -0.58338885
  -0.56307737  -0.55186592  -0.54353866  -0.53742197  -0.52043142
  -0.48553112  -0.47691668  -0.46618826  -0.45487343  -0.44682575
  -0.4158163   -0.40861924  -0.40724154  -0.40023789  -0.38539342
  -0.38079533  -0.37856199  -0.37338814  -0.36210728  -0.35822842
  -0.34495688  -0.33044151  -0.31864719  -0.30951014  -0.30259851
  -0.29568474  -0.27733167  -0.27420592  -0.26099993  -0.25544056
  -0.25344922  -0.23627662  -0.22658835  -0.19767997  -0.19443317
  -0.16990253  -0.15532137  -0.11540672  -0.01370103   0.02871908
   0.06115419   0.07222014   0.12536911   0.12618447   0.13933714
   0.14922501   0.18073249   0.23727513   0.2516881    0.27349583
   0.27785512   0.28385236   0.29004869   0.31265708   0.31694112
   0.32125457   0.32626225   0.33961053   0.36744195   0.38417536
   0.40124851   0.40857402   0.42355964   0.42940546   0.43291448
   0.45472134   0.46557416   0.49061763   0.5077305    0.5267001
   0.54826271   0.5760687    0.58561746   0.59728063   0.60803497
   0.63686305   0.64962323   0.67906916   0.68816965   0.71605369
   0.73567954   0.75778135   0.76305537   0.79023984   0.80219726
   0.82212236   0.84563951   0.91308045   1.54118266]
nelec by numeric integration = 145.99999762700287
    CPU time for vxc     38.23 sec, wall time     15.73 sec
E1 = -4096.184734968845  Ecoul = 1893.2215418122275  Exc = -124.58044608250324
cycle= 12 E= -835.440449293676  delta_E= -3.27e-10  |g|= 1.35e-05  |ddm|= 6.68e-05
    CPU time for cycle= 12     38.62 sec, wall time     15.80 sec
  HOMO = -0.115406178444556  LUMO = -0.0137001750350028
  mo_energy =
[-10.07936285 -10.05511914 -10.03055783 -10.02877832 -10.02629541
 -10.01505842 -10.01495482 -10.01467022 -10.01422394 -10.01364971
 -10.01187078 -10.01184742 -10.00967567 -10.00867015 -10.00751455
 -10.00713121 -10.00477486 -10.00369102 -10.00251548  -9.99862807
  -9.99394663  -9.99391512  -0.85842089  -0.85052984  -0.81783921
  -0.7833726   -0.76157356  -0.75880482  -0.74534267  -0.71624838
  -0.68339165  -0.67255482  -0.64458507  -0.60524467  -0.58338848
  -0.56307727  -0.55186541  -0.54353787  -0.53742135  -0.52043089
  -0.48553097  -0.47691618  -0.46618765  -0.45487231  -0.44682512
  -0.41581594  -0.40861907  -0.40724112  -0.40023719  -0.38539274
  -0.38079471  -0.37856131  -0.37338779  -0.36210713  -0.35822839
  -0.3449557   -0.33044048  -0.31864662  -0.30950963  -0.30259848
  -0.29568374  -0.27733134  -0.27420578  -0.26099929  -0.2554402
  -0.25344824  -0.23627605  -0.2265881   -0.19767939  -0.19443209
  -0.16990115  -0.15532085  -0.11540618  -0.01370018   0.0287195
   0.06115534   0.07222086   0.12536971   0.12618518   0.13933748
   0.14922586   0.18073321   0.23727645   0.25168832   0.27349525
   0.27785536   0.28385218   0.29004882   0.31265688   0.31694171
   0.32125476   0.32626353   0.33961118   0.36744336   0.38417615
   0.40124879   0.40857423   0.42356051   0.42940582   0.43291509
   0.45472239   0.46557518   0.49061816   0.5077313    0.52670107
   0.54826316   0.57606885   0.58561891   0.59728199   0.60803583
   0.63686381   0.64962421   0.67906934   0.68816998   0.71605361
   0.73567956   0.75778203   0.76305553   0.79024007   0.80219872
   0.82212423   0.84563931   0.91308026   1.54118382]
nelec by numeric integration = 145.99999762700514
    CPU time for vxc     38.03 sec, wall time     15.68 sec
E1 = -4096.184656271934  Ecoul = 1893.2214618050066  Exc = -124.58044477224703
cycle= 13 E= -835.440449293729  delta_E= -5.37e-11  |g|= 6.36e-06  |ddm|= 2.74e-05
    CPU time for cycle= 13     38.53 sec, wall time     15.75 sec
  HOMO = -0.115406776948711  LUMO = -0.0137008178687783
  mo_energy =
[-10.07936346 -10.0551212  -10.03055657 -10.02877719 -10.02629837
 -10.01505682 -10.01495812 -10.01467154 -10.01422692 -10.01365322
 -10.01187009 -10.01184647 -10.0096754  -10.00867126 -10.00751647
 -10.00713324 -10.00477674 -10.00369119 -10.00251516  -9.99862922
  -9.9939474   -9.99391668  -0.85842181  -0.85052974  -0.81784078
  -0.78337328  -0.76157425  -0.75880513  -0.74534341  -0.71624917
  -0.68339258  -0.67255549  -0.64458562  -0.60524544  -0.583389
  -0.56307744  -0.55186587  -0.5435388   -0.53742196  -0.52043157
  -0.48553128  -0.47691674  -0.4661881   -0.45487357  -0.44682572
  -0.41581645  -0.40861917  -0.40724152  -0.40023788  -0.38539332
  -0.38079519  -0.37856188  -0.37338834  -0.3621072   -0.35822853
  -0.34495664  -0.3304415   -0.31864726  -0.30951019  -0.3025988
  -0.29568473  -0.27733177  -0.27420609  -0.26099997  -0.25544078
  -0.25344923  -0.23627637  -0.22658848  -0.19767998  -0.1944328
  -0.16990226  -0.15532142  -0.11540678  -0.01370082   0.028719
   0.06115441   0.07222011   0.1253692    0.12618475   0.139337
   0.14922503   0.1807324    0.23727517   0.25168783   0.27349544
   0.27785521   0.28385217   0.2900486    0.31265687   0.31694089
   0.32125453   0.32626248   0.33961034   0.36744207   0.3841756
   0.40124908   0.40857403   0.42355983   0.42940549   0.43291455
   0.4547214    0.4655743    0.4906176    0.50773064   0.52670032
   0.54826235   0.57606861   0.58561763   0.5972807    0.60803512
   0.63686317   0.64962315   0.67906904   0.68816949   0.71605332
   0.7356793    0.75778103   0.76305526   0.79023956   0.80219711
   0.82212221   0.84563944   0.91308034   1.54118284]
nelec by numeric integration = 145.9999976270038
    CPU time for vxc     38.24 sec, wall time     15.78 sec
E1 = -4096.184733194514  Ecoul = 1893.2215405160039  Exc = -124.58044656063768
Extra cycle  E= -835.440449293702  delta_E= 2.68e-11  |g|= 1.12e-05  |ddm|= 2.6e-05
    CPU time for scf_cycle    586.97 sec, wall time    239.03 sec
    CPU time for SCF    586.97 sec, wall time    239.03 sec
converged SCF energy = -835.440449293702
nelec by numeric integration = 145.9999976270038
    CPU time for vxc     38.35 sec, wall time     15.79 sec
 ** Mulliken pop  **
pop of  0 C 1s            1.99022
pop of  0 C 2s            1.07162
pop of  0 C 2px           1.01524
pop of  0 C 2py           0.98610
pop of  0 C 2pz           0.97373
pop of  1 C 1s            1.99071
pop of  1 C 2s            1.10229
pop of  1 C 2px           0.98116
pop of  1 C 2py           0.95429
pop of  1 C 2pz           0.95663
pop of  2 C 1s            1.99102
pop of  2 C 2s            1.14296
pop of  2 C 2px           0.98570
pop of  2 C 2py           0.95993
pop of  2 C 2pz           0.98574
pop of  3 C 1s            1.99104
pop of  3 C 2s            1.19064
pop of  3 C 2px           0.96442
pop of  3 C 2py           0.93337
pop of  3 C 2pz           0.96773
pop of  4 C 1s            1.99152
pop of  4 C 2s            1.19802
pop of  4 C 2px           0.95618
pop of  4 C 2py           0.93674
pop of  4 C 2pz           0.94081
pop of  5 C 1s            1.99052
pop of  5 C 2s            1.08018
pop of  5 C 2px           1.02751
pop of  5 C 2py           0.99335
pop of  5 C 2pz           1.06544
pop of  6 C 1s            1.99065
pop of  6 C 2s            1.12042
pop of  6 C 2px           1.02116
pop of  6 C 2py           1.02921
pop of  6 C 2pz           0.98478
pop of  7 C 1s            1.99146
pop of  7 C 2s            1.24209
pop of  7 C 2px           0.95804
pop of  7 C 2py           0.93472
pop of  7 C 2pz           0.90963
pop of  8 C 1s            1.99106
pop of  8 C 2s            1.16643
pop of  8 C 2px           0.95439
pop of  8 C 2py           0.94843
pop of  8 C 2pz           0.94807
pop of  9 C 1s            1.99129
pop of  9 C 2s            1.19053
pop of  9 C 2px           0.94263
pop of  9 C 2py           0.94030
pop of  9 C 2pz           0.90923
pop of  10 C 1s           1.99090
pop of  10 C 2s           1.17303
pop of  10 C 2px          0.99564
pop of  10 C 2py          0.94914
pop of  10 C 2pz          0.96910
pop of  11 C 1s           1.99088
pop of  11 C 2s           1.19228
pop of  11 C 2px          0.99019
pop of  11 C 2py          0.93091
pop of  11 C 2pz          1.01085
pop of  12 C 1s           1.99132
pop of  12 C 2s           1.21164
pop of  12 C 2px          0.94056
pop of  12 C 2py          0.92312
pop of  12 C 2pz          0.91921
pop of  13 C 1s           1.99059
pop of  13 C 2s           1.12885
pop of  13 C 2px          0.98772
pop of  13 C 2py          0.96821
pop of  13 C 2pz          0.93725
pop of  14 C 1s           1.99165
pop of  14 C 2s           1.26816
pop of  14 C 2px          0.97761
pop of  14 C 2py          0.90741
pop of  14 C 2pz          0.92899
pop of  15 C 1s           1.99067
pop of  15 C 2s           1.10836
pop of  15 C 2px          1.03030
pop of  15 C 2py          0.96894
pop of  15 C 2pz          0.99386
pop of  16 C 1s           1.99126
pop of  16 C 2s           1.20673
pop of  16 C 2px          0.93957
pop of  16 C 2py          0.93747
pop of  16 C 2pz          0.93036
pop of  17 C 1s           1.99163
pop of  17 C 2s           1.19609
pop of  17 C 2px          0.97291
pop of  17 C 2py          0.91040
pop of  17 C 2pz          0.90016
pop of  18 C 1s           1.99123
pop of  18 C 2s           1.17662
pop of  18 C 2px          0.96655
pop of  18 C 2py          0.95760
pop of  18 C 2pz          0.95656
pop of  19 C 1s           1.99366
pop of  19 C 2s           1.02386
pop of  19 C 2px          1.00610
pop of  19 C 2py          1.01924
pop of  19 C 2pz          1.07553
pop of  20 C 1s           1.99067
pop of  20 C 2s           1.13599
pop of  20 C 2px          1.00825
pop of  20 C 2py          1.01327
pop of  20 C 2pz          0.91896
pop of  21 C 1s           1.99344
pop of  21 C 2s           0.97578
pop of  21 C 2px          1.02002
pop of  21 C 2py          1.06497
pop of  21 C 2pz          1.03987
pop of  22 H 1s           0.92540
pop of  23 H 1s           0.93257
pop of  24 H 1s           0.94762
pop of  25 H 1s           0.87589
pop of  26 H 1s           0.89223
pop of  27 H 1s           0.94625
pop of  28 H 1s           0.92741
pop of  29 H 1s           0.90633
pop of  30 H 1s           0.93214
pop of  31 H 1s           0.92953
pop of  32 H 1s           0.93118
pop of  33 H 1s           0.88450
pop of  34 H 1s           0.90246
pop of  35 H 1s           0.92505
 ** Mulliken atomic charges  **
charge of    0C =     -0.03692
charge of    1C =      0.01492
charge of    2C =     -0.06535
charge of    3C =     -0.04720
charge of    4C =     -0.02327
charge of    5C =     -0.15700
charge of    6C =     -0.14622
charge of    7C =     -0.03594
charge of    8C =     -0.00838
charge of    9C =      0.02602
charge of   10C =     -0.07781
charge of   11C =     -0.11511
charge of   12C =      0.01415
charge of   13C =     -0.01262
charge of   14C =     -0.07381
charge of   15C =     -0.09214
charge of   16C =     -0.00539
charge of   17C =      0.02882
charge of   18C =     -0.04857
charge of   19C =     -0.11839
charge of   20C =     -0.06715
charge of   21C =     -0.09408
charge of   22H =      0.07460
charge of   23H =      0.06743
charge of   24H =      0.05238
charge of   25H =      0.12411
charge of   26H =      0.10777
charge of   27H =      0.05375
charge of   28H =      0.07259
charge of   29H =      0.09367
charge of   30H =      0.06786
charge of   31H =      0.07047
charge of   32H =      0.06882
charge of   33H =      0.11550
charge of   34H =      0.09754
charge of   35H =      0.07495
Dipole moment(X, Y, Z, Debye):  0.17647, -1.10914,  0.84782
nelec by numeric integration = 145.9999976270038
    CPU time for vxc     38.05 sec, wall time     15.75 sec
E1 = -4096.184733194514  Ecoul = 1893.2215405160034  Exc = -124.58044656063768
nelec by numeric integration = 145.9999976270038
    CPU time for vxc     37.61 sec, wall time     15.59 sec
E1 = -4096.184733194514  Ecoul = 1893.2215405160039  Exc = -124.58044656063768
