System: uname_result(system='Linux', node='cosmopc18', release='5.15.0-97-generic', version='#107-Ubuntu SMP Wed Feb 7 13:26:48 UTC 2024', machine='x86_64')  Threads 4
Python 3.11.8 (main, Feb 26 2024, 21:39:34) [GCC 11.2.0]
numpy 1.26.4  scipy 1.11.4
Date: Tue Apr  9 18:00:46 2024
PySCF version 2.3.0
PySCF path  /home/saade/miniconda3/envs/tutorial/lib/python3.11/site-packages/pyscf

[ENV] PYSCFAD_BACKEND torch
[CONFIG] conf_file None
[INPUT] verbose = 5
[INPUT] max_memory = 4000 
[INPUT] num. atoms = 36
[INPUT] num. electrons = 146
[INPUT] charge = 0
[INPUT] spin (= nelec alpha-beta = 2S) = 0
[INPUT] symmetry False subgroup None
[INPUT] Mole.unit = angstrom
[INPUT] Symbol           X                Y                Z      unit          X                Y                Z       unit  Magmom
[INPUT]  1 C      0.050193000000   3.622662000000   0.748865000000 AA    0.094851023370   6.845839021869   1.415149754272 Bohr   0.0
[INPUT]  2 C      0.020383000000   3.609608000000  -0.840898000000 AA    0.038518287597   6.821170537039  -1.589066918695 Bohr   0.0
[INPUT]  3 C      0.099525000000   4.752433000000   1.320446000000 AA    0.188074992547   8.980796795345   2.495281302277 Bohr   0.0
[INPUT]  4 C     -0.016611000000   2.481849000000   1.705163000000 AA   -0.031390240655   4.690014892526   3.222291067742 Bohr   0.0
[INPUT]  5 C      0.011796000000   4.955834000000  -1.360693000000 AA    0.022291209365   9.365168978808  -2.571337109613 Bohr   0.0
[INPUT]  6 C      0.028813000000   2.486647000000  -1.395160000000 AA    0.054448678827   4.699081798471  -2.636470299948 Bohr   0.0
[INPUT]  7 C     -0.095470000000   5.951955000000  -0.767547000000 AA   -0.180412153112  11.247564855736  -1.450453617732 Bohr   0.0
[INPUT]  8 C      0.088538000000   6.057052000000   0.789263000000 AA    0.167312571617  11.446169402249   1.491490910253 Bohr   0.0
[INPUT]  9 C      0.075658000000   1.166728000000   0.674270000000 AA    0.142972899132   2.204796381862   1.274185634010 Bohr   0.0
[INPUT] 10 C     -0.079297000000   1.148435000000  -0.553169000000 AA   -0.149849612500   2.170227621865  -1.045337910600 Bohr   0.0
[INPUT] 11 C      0.102248000000  -0.067976000000   1.426875000000 AA    0.193220716785  -0.128456023043   2.696402963989 Bohr   0.0
[INPUT] 12 C      0.030539000000   0.044762000000  -1.166752000000 AA    0.057710346118   0.084587920788  -2.204841735289 Bohr   0.0
[INPUT] 13 C     -0.220332000000  -1.159389000000   0.687591000000 AA   -0.416367136478  -2.190927681833   1.299358675716 Bohr   0.0
[INPUT] 14 C     -0.123889000000  -1.214309000000  -0.613620000000 AA   -0.234116279846  -2.294711440594  -1.159573744556 Bohr   0.0
[INPUT] 15 C     -0.068067000000  -2.471908000000   1.408432000000 AA   -0.128627988121  -4.671229125121   2.661550745073 Bohr   0.0
[INPUT] 16 C      0.028270000000  -2.376089000000  -1.220691000000 AA    0.053422557541  -4.490157457592  -2.306771672721 Bohr   0.0
[INPUT] 17 C     -0.134900000000  -3.758074000000   0.684485000000 AA   -0.254924054204  -7.101730615849   1.293489186373 Bohr   0.0
[INPUT] 18 C     -0.122795000000  -3.810832000000  -0.582107000000 AA   -0.232048919466  -7.201428786729  -1.100022805192 Bohr   0.0
[INPUT] 19 C      0.197108000000  -4.938156000000   1.326454000000 AA    0.372480136961  -9.331762400378   2.506634776834 Bohr   0.0
[INPUT] 20 C     -0.044910000000  -4.913996000000  -1.378712000000 AA   -0.084867600254  -9.286106617208  -2.605388084651 Bohr   0.0
[INPUT] 21 C      0.044707000000  -6.196384000000   0.653641000000 AA    0.084483985851 -11.709468722637   1.235202473787 Bohr   0.0
[INPUT] 22 C      0.001809000000  -6.290430000000  -0.819513000000 AA    0.003418514559 -11.887189905748  -1.548655125521 Bohr   0.0
[INPUT] 23 H     -0.086144000000   4.766631000000   2.496044000000 AA   -0.162788567275   9.007627126862   4.716839554864 Bohr   0.0
[INPUT] 24 H      0.016395000000   2.549428000000   2.447498000000 AA    0.030982059812   4.817720694298   4.625100910421 Bohr   0.0
[INPUT] 25 H      0.054930000000   4.957034000000  -2.392387000000 AA    0.103802656022   9.367436650157  -4.520956213970 Bohr   0.0
[INPUT] 26 H     -0.072432000000   2.494067000000  -2.382710000000 AA   -0.136876642654   4.713103566316  -4.502669334262 Bohr   0.0
[INPUT] 27 H     -0.102801000000   6.738982000000  -1.277481000000 AA   -0.194265735331  12.734830338374  -2.414089219336 Bohr   0.0
[INPUT] 28 H     -0.057972000000   6.968975000000   1.166504000000 AA   -0.109551202893  13.169454118941   2.204373083210 Bohr   0.0
[INPUT] 29 H     -0.034582000000   0.328463000000   2.546651000000 AA   -0.065350508840   0.620705112053   4.812472924850 Bohr   0.0
[INPUT] 30 H     -0.093870000000  -0.032308000000  -2.318297000000 AA   -0.177388591313  -0.061053271632  -4.380946405401 Bohr   0.0
[INPUT] 31 H      0.046083000000  -2.535807000000   2.520493000000 AA    0.087084248998  -4.791980734755   4.763041468883 Bohr   0.0
[INPUT] 32 H     -0.133280000000  -2.468869000000  -2.524630000000 AA   -0.251862697882  -4.665486247429  -4.770859265861 Bohr   0.0
[INPUT] 33 H     -0.035635000000  -4.866382000000   2.513572000000 AA   -0.067340390449  -9.196129197513   4.749962674375 Bohr   0.0
[INPUT] 34 H     -0.195603000000  -4.757945000000  -2.567327000000 AA   -0.369636099143  -8.991212965744  -4.851544902201 Bohr   0.0
[INPUT] 35 H     -0.160440000000  -7.104317000000   1.172671000000 AA   -0.303187659425 -13.425213432092   2.216027024220 Bohr   0.0
[INPUT] 36 H     -0.231571000000  -7.141382000000  -1.344599000000 AA   -0.437605768392 -13.495256130899  -2.540923857364 Bohr   0.0
[INPUT] ---------------- BASIS SET ---------------- 
[INPUT] l, kappa, [nprim/nctr], expnt,             c_1 c_2 ...
[INPUT] H
[INPUT] 0    0    [3    /1   ]  3.42525091        0.15432897
                                0.62391373        0.53532814
                                0.1688554         0.44463454
[INPUT] C
[INPUT] 0    0    [3    /1   ]  71.616837         0.15432897
                                13.045096         0.53532814
                                3.5305122         0.44463454
[INPUT] 0    0    [3    /1   ]  2.9412494         -0.09996723
                                0.6834831         0.39951283
                                0.2222899         0.70011547
[INPUT] 1    0    [3    /1   ]  2.9412494         0.15591627
                                0.6834831         0.60768372
                                0.2222899         0.39195739

nuclear repulsion = 1506.12356923369
number of shells = 80
number of NR pGTOs = 372
number of NR cGTOs = 124
basis = sto3g
ecp = {}
CPU time:     72991.76
atom C rad-grids = 99, ang-grids = [ 50  50  50  50  50  50  50  50  50  50  50  50  50  50  50  50  50  50
  50  50  50  50  50  50  50  50  50  50  50  50  50  86  86  86  86  86
  86  86  86  86  86  86  86 434 434 434 434 434 434 434 434 434 590 590
 590 590 590 590 590 590 590 590 590 590 590 590 590 590 590 590 590 590
 590 590 590 590 590 590 590 434 434 434 434 434 434 434 434 434 434 434
 434 434 434 434 434 434 434 434 434]
atom H rad-grids = 99, ang-grids = [ 50  50  50  50  50  50  50  50  50  50  50  50  50  50  50  50  50  50
  50  50  50  50  50  50  50  50  50  50  86  86  86  86  86  86  86 434
 434 434 434 434 434 434 434 590 590 590 590 590 590 590 590 590 590 590
 590 590 590 590 590 590 590 590 590 590 590 590 590 590 590 434 434 434
 434 434 434 434 434 434 434 434 434 434 434 434 434 434 434 434 434 434
 434 434 434 434 434 434 434 434 434]
tot_boxes 5270, boxes in each direction [ 8 29 15]
Padding 0 grids
tot grids = 1157832


******** <class 'pyscf.dft.rks.RKS'> ********
method = RKS
initial guess = minao
damping factor = 0
level_shift factor = 0
DIIS = <class 'pyscf.scf.diis.CDIIS'>
diis_start_cycle = 1
diis_space = 8
SCF conv_tol = 1e-10
SCF conv_tol_grad = None
SCF max_cycles = 50
direct_scf = True
direct_scf_tol = 1e-13
chkfile to save SCF result = /home/saade/mlelec/tutorials/tmp0lupl9yw
max_memory 4000 MB (current use 690 MB)
XC library pyscf.dft.libxc version 6.1.0
    S. Lehtola, C. Steigemann, M. J.T. Oliveira, and M. A.L. Marques.,  SoftwareX 7, 1–5 (2018)
XC functionals = b3lypg
    P. J. Stephens, F. J. Devlin, C. F. Chabalowski, and M. J. Frisch.,  J. Phys. Chem. 98, 11623 (1994)
radial grids: 
    Treutler-Ahlrichs [JCP 102, 346 (1995); DOI:10.1063/1.469408] (M4) radial grids
    
becke partition: Becke, JCP 88, 2547 (1988); DOI:10.1063/1.454033
pruning grids: <function nwchem_prune at 0x7f9db5616ca0>
grids dens level: 3
symmetrized grids: False
atomic radii adjust function: <function treutler_atomic_radii_adjust at 0x7f9db5617380>
User specified grid scheme (99, 590)
small_rho_cutoff = 1e-07
Set gradient conv threshold to 1e-05
Initial guess from minao.
nelec by numeric integration = 145.270430194186
    CPU time for vxc     37.11 sec, wall time     15.60 sec
E1 = -4111.792812982641  Ecoul = 1890.1679401606368  Exc = -126.23796745137031
init E= -841.73927103968
cond(S) = 24.647279848259913
    CPU time for initialize scf     47.14 sec, wall time     18.00 sec
  HOMO = -0.198982695698354  LUMO = -0.153600717084218
  mo_energy =
[-10.14382822 -10.13754226 -10.13726627 -10.13446375 -10.13341832
 -10.1214442  -10.12104881 -10.12022348 -10.11768528 -10.11534694
 -10.11430307 -10.10795389 -10.10529411 -10.10224233 -10.09690784
 -10.08593661 -10.08276455 -10.08170127 -10.08017386 -10.07892565
 -10.07657551 -10.07414116  -1.13031078  -1.07735808  -1.05941624
  -0.99827712  -0.96899106  -0.93786612  -0.9161877   -0.8856372
  -0.87320994  -0.84811188  -0.78535445  -0.77715286  -0.7579415
  -0.70360408  -0.69627014  -0.68276532  -0.6709158   -0.65602491
  -0.60929784  -0.58597605  -0.58457335  -0.56470738  -0.54604631
  -0.54332475  -0.50395454  -0.49751373  -0.49538124  -0.49271942
  -0.47576989  -0.46840058  -0.4604608   -0.45365867  -0.44249462
  -0.4398094   -0.43322578  -0.42910115  -0.4211107   -0.39379124
  -0.38831389  -0.38379143  -0.36999917  -0.36198847  -0.35321142
  -0.331826    -0.32692234  -0.32126007  -0.31088974  -0.29117451
  -0.28062575  -0.24254783  -0.1989827   -0.15360072  -0.12212247
  -0.06070055  -0.04821478  -0.02658017  -0.02239975   0.02077294
   0.03183636   0.07525313   0.10952738   0.11372536   0.14107624
   0.15013239   0.15465246   0.18085388   0.18440578   0.20026794
   0.2067216    0.21643131   0.23270302   0.24678736   0.25913633
   0.29116658   0.2922669    0.31761058   0.32095492   0.3343083
   0.34208118   0.35041731   0.38385067   0.38673204   0.40913463
   0.43984581   0.44997604   0.47928048   0.4915782    0.50545729
   0.51951508   0.53470688   0.55723955   0.59034261   0.59642544
   0.62992215   0.66607088   0.67569105   0.72906084   0.74578814
   0.77572651   0.79691743   0.85999677   0.91434631]
nelec by numeric integration = 145.9999991289341
    CPU time for vxc     37.72 sec, wall time     15.74 sec
E1 = -4126.833124293886  Ecoul = 1909.9954210927265  Exc = -124.85462468506395
cycle= 1 E= -835.568758652529  delta_E= 6.17  |g|= 0.281  |ddm|=  9.3
    CPU time for cycle= 1     37.99 sec, wall time     15.79 sec
  HOMO = -0.0816296699265162  LUMO = -0.000857705614708264
  mo_energy =
[-1.00451041e+01 -1.00421768e+01 -1.00206836e+01 -1.00200042e+01
 -1.00145132e+01 -1.00062741e+01 -9.99900583e+00 -9.99119945e+00
 -9.98410290e+00 -9.98360360e+00 -9.98190069e+00 -9.97860618e+00
 -9.97538654e+00 -9.97505697e+00 -9.97441097e+00 -9.97237373e+00
 -9.97023785e+00 -9.96497683e+00 -9.96349619e+00 -9.94317378e+00
 -9.94125144e+00 -9.93617507e+00 -8.40920523e-01 -8.23222375e-01
 -8.14202084e-01 -7.64452910e-01 -7.47890763e-01 -7.35183965e-01
 -7.08754812e-01 -6.99858828e-01 -6.85505802e-01 -6.68228566e-01
 -6.24937936e-01 -6.21692204e-01 -5.91042874e-01 -5.62752579e-01
 -5.49619328e-01 -5.45725343e-01 -5.34602273e-01 -5.19660796e-01
 -4.87127049e-01 -4.70843202e-01 -4.65382170e-01 -4.41461159e-01
 -4.33052880e-01 -4.25025148e-01 -3.99917693e-01 -3.94635487e-01
 -3.85127132e-01 -3.76551427e-01 -3.64758401e-01 -3.51286053e-01
 -3.48747683e-01 -3.45977008e-01 -3.40022862e-01 -3.33184580e-01
 -3.25119119e-01 -3.15942129e-01 -3.12451794e-01 -2.99391227e-01
 -2.91779097e-01 -2.60306614e-01 -2.57599513e-01 -2.53267603e-01
 -2.35965988e-01 -2.28433752e-01 -2.14886914e-01 -2.01884893e-01
 -2.01395967e-01 -1.87422107e-01 -1.72329950e-01 -1.24727927e-01
 -8.16296699e-02 -8.57705615e-04  3.72523606e-02  8.52970603e-02
  9.64853977e-02  1.19939625e-01  1.46066427e-01  1.85704232e-01
  2.00884354e-01  2.59093713e-01  2.66898633e-01  2.77861644e-01
  2.97827060e-01  2.99918085e-01  3.11017760e-01  3.30025351e-01
  3.35279928e-01  3.51830872e-01  3.60027853e-01  3.67755186e-01
  3.73351292e-01  3.99056835e-01  4.13394416e-01  4.24861903e-01
  4.33715883e-01  4.57485543e-01  4.61710677e-01  4.75654673e-01
  4.82056384e-01  5.05002929e-01  5.12105935e-01  5.28365594e-01
  5.62690417e-01  5.74356531e-01  5.97343152e-01  6.26116253e-01
  6.42699409e-01  6.57230706e-01  6.71812412e-01  6.95334933e-01
  7.19065444e-01  7.66881975e-01  7.78312239e-01  7.92569606e-01
  8.16818244e-01  8.39128995e-01  8.94065057e-01  9.21012673e-01
  9.66473706e-01  9.89055009e-01  1.03818177e+00  1.08165977e+00]
nelec by numeric integration = 145.999999129631
    CPU time for vxc     37.73 sec, wall time     15.72 sec
E1 = -4120.26660007289  Ecoul = 1903.3359479185422  Exc = -124.72238386714959
cycle= 2 E= -835.529466787802  delta_E= 0.0393  |g|= 0.431  |ddm|= 1.14
    CPU time for cycle= 2     38.27 sec, wall time     15.80 sec
  HOMO = -0.0979245369458018  LUMO = -0.0168358222675812
  mo_energy =
[-10.0382123  -10.03219289 -10.02772876 -10.02695397 -10.02519045
 -10.02411036 -10.01937507 -10.01802921 -10.01588416 -10.01512224
 -10.01473206 -10.01079422 -10.00149036 -10.00117327  -9.9989755
  -9.99600684  -9.99353963  -9.99158098  -9.99088616  -9.98228076
  -9.97257804  -9.96626776  -0.88116497  -0.83736655  -0.82520111
  -0.78767055  -0.76915747  -0.743295    -0.72661916  -0.71134815
  -0.70078321  -0.68578561  -0.63450408  -0.62748642  -0.61807041
  -0.5702189   -0.56564429  -0.55844197  -0.54726919  -0.53012796
  -0.4948909   -0.47737362  -0.47474253  -0.46070609  -0.44539234
  -0.43904241  -0.40737584  -0.39974976  -0.39904138  -0.38573746
  -0.38330808  -0.37441508  -0.36374253  -0.3532702   -0.350116
  -0.3446295   -0.34011211  -0.33114386  -0.32386464  -0.31117702
  -0.30433309  -0.28547744  -0.27508679  -0.26836754  -0.26123947
  -0.2459599   -0.22797754  -0.22193216  -0.21529245  -0.19722441
  -0.18938539  -0.14297171  -0.09792454  -0.01683582   0.01466938
   0.0774531    0.08795597   0.11581029   0.11934672   0.17256103
   0.17548792   0.22012691   0.24035854   0.25752987   0.28106184
   0.28869519   0.29666774   0.31938366   0.3255542    0.33268872
   0.34106785   0.35680922   0.36723671   0.38784301   0.40244481
   0.42268742   0.43306549   0.4510983    0.46482105   0.47671654
   0.48238467   0.49526142   0.50949871   0.52297545   0.55181472
   0.58043686   0.58340375   0.61986245   0.63513467   0.64069227
   0.65262437   0.67476932   0.70200343   0.73753446   0.74157182
   0.77495101   0.80927403   0.81875878   0.87749615   0.8924417
   0.9239086    0.94345419   1.0337209    1.03449349]
nelec by numeric integration = 145.99999914071742
    CPU time for vxc     38.08 sec, wall time     15.76 sec
E1 = -4123.468971493879  Ecoul = 1906.5046849000487  Exc = -124.74480925309167
cycle= 3 E= -835.585526613227  delta_E= -0.0561  |g|= 0.209  |ddm|= 0.996
    CPU time for cycle= 3     38.54 sec, wall time     15.83 sec
  HOMO = -0.105032677469622  LUMO = -0.0248168445074176
  mo_energy =
[-10.03944849 -10.03448035 -10.03338724 -10.03333215 -10.02962546
 -10.02622156 -10.02508876 -10.02235756 -10.01903343 -10.01825226
 -10.01755838 -10.01717695 -10.0167755  -10.01426232 -10.0138
 -10.01280049 -10.01053084 -10.00970275 -10.0051729  -10.00266093
 -10.0022552  -10.00187242  -0.88536508  -0.84689236  -0.83762299
  -0.79479404  -0.77242251  -0.75210313  -0.73348979  -0.71790511
  -0.70458399  -0.68670879  -0.63934621  -0.63625632  -0.62324043
  -0.57735459  -0.56954673  -0.5646904   -0.55341922  -0.53689647
  -0.50246139  -0.48339331  -0.48031385  -0.46327992  -0.45037945
  -0.44565993  -0.41390793  -0.40662606  -0.40268896  -0.39046452
  -0.38946515  -0.38131341  -0.36891311  -0.35996423  -0.35715433
  -0.35211284  -0.34817387  -0.34013045  -0.33463076  -0.31439125
  -0.30628546  -0.28826801  -0.27961815  -0.27563526  -0.26448935
  -0.25103332  -0.23388439  -0.22999811  -0.22513595  -0.20488652
  -0.19499206  -0.14615167  -0.10503268  -0.02481684   0.01177219
   0.07076979   0.0814259    0.10436773   0.11323317   0.16272412
   0.16924625   0.22256744   0.24338137   0.25131224   0.27875977
   0.28581347   0.2892257    0.31705634   0.3206831    0.32886438
   0.33665543   0.35062357   0.36054255   0.38693153   0.39494515
   0.41371433   0.42700198   0.44698164   0.45427463   0.468134
   0.4728063    0.48583806   0.50567542   0.5144981    0.54578148
   0.57138218   0.57554986   0.61282805   0.62759105   0.63390965
   0.64490685   0.66810802   0.69196288   0.73293348   0.73615937
   0.7645929    0.79739749   0.8098182    0.86812845   0.88263047
   0.919795     0.94043312   1.01280277   1.04766804]
nelec by numeric integration = 145.999999136083
    CPU time for vxc     38.37 sec, wall time     15.80 sec
E1 = -4123.740918899723  Ecoul = 1906.7776720597615  Exc = -124.76106824089477
cycle= 4 E= -835.600745847161  delta_E= -0.0152  |g|= 0.0735  |ddm|= 0.43
    CPU time for cycle= 4     38.86 sec, wall time     15.88 sec
  HOMO = -0.103746887545531  LUMO = -0.0237117462762003
  mo_energy =
[-10.03780421 -10.02883554 -10.02880286 -10.0284257  -10.02581473
 -10.02453898 -10.02444102 -10.02275924 -10.02189279 -10.01924051
 -10.01801536 -10.01700063 -10.0159316  -10.01532801 -10.01499417
 -10.01400047 -10.01186952 -10.00928768 -10.0074648  -10.00663702
 -10.00294302 -10.00253923  -0.88255767  -0.84481493  -0.83625105
  -0.79356215  -0.7735656   -0.75211353  -0.73116691  -0.71895373
  -0.70368272  -0.68806211  -0.64021247  -0.63407923  -0.62314531
  -0.57708653  -0.56859789  -0.56159726  -0.55362521  -0.53682211
  -0.50202101  -0.48309253  -0.47999921  -0.46294218  -0.45176535
  -0.44513454  -0.41316588  -0.40704985  -0.40305419  -0.39026484
  -0.38772864  -0.38039459  -0.36813837  -0.35854152  -0.35459237
  -0.35175645  -0.34721226  -0.3381155   -0.33390753  -0.31295221
  -0.30783407  -0.28790669  -0.27946543  -0.27609701  -0.2649671
  -0.25009918  -0.23189127  -0.23029968  -0.22599563  -0.20594254
  -0.19371551  -0.14832165  -0.10374689  -0.02371175   0.01029628
   0.0721132    0.08075655   0.10396265   0.11556857   0.16162669
   0.16980682   0.22133152   0.24351312   0.2524893    0.27786741
   0.28733886   0.2894805    0.31611981   0.32314964   0.33047672
   0.33748802   0.34982669   0.35897197   0.38756418   0.39764744
   0.41724765   0.42668047   0.44752746   0.45338909   0.46819039
   0.47184656   0.48834166   0.50483982   0.51450331   0.5463449
   0.5698321    0.5757112    0.61528174   0.62981023   0.63479789
   0.6463485    0.66819399   0.69195923   0.7363437    0.73724648
   0.76583549   0.79769321   0.81192041   0.86814565   0.8875202
   0.92108561   0.94212486   1.01207403   1.04279713]
nelec by numeric integration = 145.999999137071
    CPU time for vxc     37.69 sec, wall time     15.63 sec
E1 = -4123.532029732475  Ecoul = 1906.5660657214844  Exc = -124.7601610920078
cycle= 5 E= -835.602555869304  delta_E= -0.00181  |g|= 0.0248  |ddm|= 0.144
    CPU time for cycle= 5     38.20 sec, wall time     15.71 sec
  HOMO = -0.103959385925373  LUMO = -0.0235115728963031
  mo_energy =
[-10.0357714  -10.02910843 -10.0281328  -10.02696159 -10.02626097
 -10.02534702 -10.02399874 -10.02355046 -10.02317002 -10.01611496
 -10.01560691 -10.01492518 -10.01348587 -10.01154464 -10.01095837
 -10.0107329  -10.01006681 -10.00829467 -10.00709907 -10.00630518
 -10.00490714 -10.00454137  -0.8816392   -0.84406475  -0.83524259
  -0.79247066  -0.77305824  -0.75089848  -0.7309406   -0.71776697
  -0.70371898  -0.6878172   -0.63864365  -0.63445235  -0.62272119
  -0.57618728  -0.56798511  -0.56202117  -0.55281521  -0.53601541
  -0.50094746  -0.48212514  -0.47953819  -0.46279933  -0.45051217
  -0.4444848   -0.41256733  -0.40624059  -0.40257526  -0.38968933
  -0.38710641  -0.37999043  -0.36767799  -0.35806954  -0.35515899
  -0.35119846  -0.34668235  -0.33795795  -0.33293917  -0.31305207
  -0.30736536  -0.28738593  -0.27881837  -0.27548183  -0.26487031
  -0.24975948  -0.23164993  -0.22961353  -0.22504624  -0.2049723
  -0.19358889  -0.14807176  -0.10395939  -0.02351157   0.01068786
   0.07246272   0.08167992   0.10517974   0.11562894   0.16280002
   0.17067997   0.22153145   0.24356329   0.252843     0.2785307
   0.2876949    0.28984438   0.31683062   0.32269652   0.33060764
   0.33768987   0.35133851   0.35973443   0.38773011   0.39662883
   0.41644405   0.42726344   0.44803857   0.45493329   0.468675
   0.47289632   0.48819511   0.50542177   0.51570929   0.54735714
   0.5711041    0.57636906   0.61547159   0.63005345   0.63516979
   0.64691254   0.66952276   0.69316754   0.73705015   0.73829207
   0.76674169   0.79915418   0.81219116   0.8691959    0.88753488
   0.92226366   0.94319757   1.01509753   1.04160885]
nelec by numeric integration = 145.99999913476205
    CPU time for vxc     38.39 sec, wall time     15.89 sec
E1 = -4123.519930756098  Ecoul = 1906.5514761272607  Exc = -124.75774284043443
cycle= 6 E= -835.602628235577  delta_E= -7.24e-05  |g|= 0.0206  |ddm|= 0.0673
    CPU time for cycle= 6     39.10 sec, wall time     16.00 sec
  HOMO = -0.103691541964462  LUMO = -0.0231160229972867
  mo_energy =
[-10.03617818 -10.02908043 -10.02818104 -10.02784194 -10.02632397
 -10.02411964 -10.02359302 -10.02287468 -10.02137037 -10.01596725
 -10.01574671 -10.01567606 -10.01264302 -10.01229121 -10.01089663
 -10.01071163 -10.01041392 -10.00648799 -10.00645554 -10.00592818
 -10.00541571 -10.00473042  -0.88183399  -0.84401071  -0.83524888
  -0.79253696  -0.77272738  -0.75109745  -0.73075153  -0.71744613
  -0.70334948  -0.68729575  -0.6389867   -0.63386972  -0.62248134
  -0.57609024  -0.56801188  -0.56178328  -0.55264337  -0.53617006
  -0.50102318  -0.4821781   -0.47940886  -0.46254679  -0.45044075
  -0.44457669  -0.41240806  -0.40603968  -0.40240901  -0.38952352
  -0.38723444  -0.37992452  -0.36770867  -0.35804272  -0.35491387
  -0.35104701  -0.34672284  -0.33790283  -0.33302293  -0.31273875
  -0.3074233   -0.28726205  -0.27873682  -0.27534743  -0.26454241
  -0.24982469  -0.23153147  -0.22957393  -0.22500458  -0.20468521
  -0.19335775  -0.1476574   -0.10369154  -0.02311602   0.01115884
   0.07272136   0.08191658   0.10522147   0.11580273   0.16282678
   0.1705971    0.22200058   0.24357394   0.25303701   0.27838113
   0.28770896   0.28970115   0.31674287   0.32299621   0.33068609
   0.33799451   0.35114707   0.35974532   0.38781614   0.39747166
   0.41702899   0.42771975   0.44815617   0.45473589   0.46906059
   0.47285755   0.48860882   0.50573209   0.51557571   0.54733801
   0.57111524   0.57673733   0.6156544    0.63043257   0.63541339
   0.64703819   0.66920659   0.69280453   0.73681828   0.73791129
   0.76660176   0.79902568   0.81236212   0.86904771   0.88761642
   0.92196977   0.94305373   1.01480995   1.04328442]
nelec by numeric integration = 145.99999913605092
    CPU time for vxc     38.12 sec, wall time     15.76 sec
E1 = -4123.521063080994  Ecoul = 1906.552268760995  Exc = -124.75756074122174
cycle= 7 E= -835.602785827527  delta_E= -0.000158  |g|= 0.0038  |ddm|= 0.0384
    CPU time for cycle= 7     38.64 sec, wall time     15.85 sec
  HOMO = -0.10365285601568  LUMO = -0.0230176109990985
  mo_energy =
[-10.03629879 -10.02932996 -10.02810219 -10.02763552 -10.02571051
 -10.02430719 -10.02347665 -10.02308159 -10.02115236 -10.01570775
 -10.01551326 -10.01513431 -10.01268392 -10.01267195 -10.01133632
 -10.01068691 -10.01061509 -10.00608981 -10.00589497 -10.00551628
 -10.00530537 -10.0051707   -0.88193522  -0.84391377  -0.8351833
  -0.79252182  -0.77255843  -0.7509246   -0.7308192   -0.71759351
  -0.70328744  -0.6872258   -0.63880812  -0.63388273  -0.62245876
  -0.57606379  -0.56803465  -0.56181069  -0.55264996  -0.5360106
  -0.5009622   -0.48212596  -0.47938713  -0.4624899   -0.45043498
  -0.44446477  -0.41243181  -0.40603048  -0.40236625  -0.38951421
  -0.38726361  -0.37985524  -0.36764158  -0.35792328  -0.35491591
  -0.3509988   -0.34659042  -0.33788972  -0.33294367  -0.31272196
  -0.3073862   -0.28724746  -0.27874412  -0.27520644  -0.26443188
  -0.24974765  -0.23156878  -0.22943417  -0.22488104  -0.20479101
  -0.19337449  -0.1474872   -0.10365286  -0.02301761   0.01134339
   0.07267598   0.08183991   0.10532634   0.11576865   0.16303789
   0.17061898   0.2221213    0.24364436   0.25304416   0.27863867
   0.28781034   0.28986159   0.31689359   0.32298256   0.33071196
   0.3379894    0.35129874   0.35980814   0.38790893   0.39742864
   0.41695767   0.4276617    0.44809469   0.45492743   0.46904216
   0.47300769   0.48858455   0.5056283    0.51565935   0.54732822
   0.57129109   0.57664666   0.61560936   0.63030453   0.6353402
   0.64699525   0.66931675   0.69306837   0.73674291   0.73801001
   0.76670349   0.79909454   0.81237756   0.8692684    0.88754171
   0.92199959   0.94297577   1.01491178   1.04339947]
nelec by numeric integration = 145.9999991359742
    CPU time for vxc     38.79 sec, wall time     15.99 sec
E1 = -4123.517648654813  Ecoul = 1906.5488029343865  Exc = -124.75751438031506
cycle= 8 E= -835.602790867047  delta_E= -5.04e-06  |g|= 0.000712  |ddm|= 0.00683
    CPU time for cycle= 8     39.14 sec, wall time     16.05 sec
  HOMO = -0.103663138194568  LUMO = -0.0230098208919684
  mo_energy =
[-10.03635088 -10.02909332 -10.02802516 -10.02764591 -10.02566588
 -10.02433512 -10.02349044 -10.02309502 -10.02120698 -10.01581708
 -10.01567061 -10.01506659 -10.01268639 -10.01267427 -10.01129159
 -10.01070544 -10.01065708 -10.00615623 -10.00600939 -10.00539931
 -10.00527569 -10.00526529  -0.88189762  -0.84393915  -0.83521845
  -0.79252052  -0.77256992  -0.75092569  -0.73078597  -0.71759018
  -0.7033087   -0.68723794  -0.63883318  -0.63387903  -0.62245974
  -0.57607403  -0.56801179  -0.56181174  -0.55266349  -0.53601347
  -0.50098372  -0.48213649  -0.47939123  -0.46246468  -0.45045138
  -0.44445097  -0.41243516  -0.40605606  -0.40237146  -0.38951924
  -0.3872326   -0.37986486  -0.36763995  -0.35792907  -0.35491284
  -0.35099728  -0.346598    -0.33786939  -0.3329631   -0.31272521
  -0.30738104  -0.28723344  -0.27873737  -0.27521368  -0.26441486
  -0.2497409   -0.23154278  -0.2294402   -0.22488661  -0.20478885
  -0.19338527  -0.14751537  -0.10366314  -0.02300982   0.01133349
   0.07268085   0.08184033   0.10531525   0.11579682   0.1630134
   0.17063479   0.22212921   0.2436739    0.25303448   0.27864245
   0.28779339   0.28985109   0.3169031    0.32298741   0.33072985
   0.33801554   0.35126762   0.35979177   0.38792683   0.39745217
   0.41696212   0.42764749   0.44809922   0.45490291   0.46904275
   0.47299858   0.48858387   0.50562022   0.5156349    0.54734077
   0.57126304   0.57663925   0.61561237   0.63031028   0.63535997
   0.64701901   0.66930305   0.69306438   0.73679316   0.73801542
   0.76670104   0.79905835   0.81237933   0.86926431   0.88753016
   0.92201055   0.94299093   1.01483218   1.0433793 ]
nelec by numeric integration = 145.9999991361425
    CPU time for vxc     37.91 sec, wall time     15.68 sec
E1 = -4123.517362463606  Ecoul = 1906.5485560470536  Exc = -124.75755383531806
cycle= 9 E= -835.602791018176  delta_E= -1.51e-07  |g|= 0.000332  |ddm|= 0.00129
    CPU time for cycle= 9     38.53 sec, wall time     15.78 sec
  HOMO = -0.103670905324051  LUMO = -0.0230150397272938
  mo_energy =
[-10.03633861 -10.02917623 -10.0280492  -10.02767387 -10.02573889
 -10.02429119 -10.02350097 -10.02304682 -10.02123718 -10.01580466
 -10.01566178 -10.01515856 -10.01267578 -10.01266759 -10.01129907
 -10.0107     -10.01066057 -10.00614262 -10.00601357 -10.00540938
 -10.00529685 -10.00526479  -0.88191684  -0.84393982  -0.83521566
  -0.79253175  -0.77259292  -0.75094588  -0.73079532  -0.7175925
  -0.70330437  -0.68724615  -0.6388434   -0.6338815   -0.62246968
  -0.57608044  -0.56802366  -0.5618006   -0.55266679  -0.53602799
  -0.50098731  -0.48214306  -0.47939329  -0.46248386  -0.45045674
  -0.44446929  -0.41243259  -0.40605294  -0.40237954  -0.3895213
  -0.38724716  -0.37986939  -0.36764167  -0.3579371   -0.35490766
  -0.35100715  -0.34660694  -0.33787832  -0.332965    -0.31272173
  -0.30737567  -0.28724495  -0.27874341  -0.2752286   -0.26443466
  -0.24974382  -0.23155347  -0.2294526   -0.22490065  -0.20478907
  -0.19338039  -0.14753069  -0.10367091  -0.02301504   0.01132364
   0.07268024   0.08184071   0.10530833   0.11578737   0.162993
   0.17062178   0.22210852   0.24366622   0.25303643   0.27862416
   0.2877958    0.289849     0.31689298   0.32298987   0.33072191
   0.33800067   0.35126369   0.35979532   0.3879197    0.39744499
   0.41697072   0.42764775   0.4480978    0.4548912    0.46903858
   0.47299147   0.48859147   0.50562333   0.51562873   0.54732666
   0.57125093   0.57664195   0.61561342   0.63030991   0.63535113
   0.6470024    0.66929448   0.69303886   0.73677402   0.73799978
   0.76668905   0.7990587    0.81237172   0.86923865   0.88754808
   0.92199744   0.94297797   1.01483866   1.04335714]
nelec by numeric integration = 145.99999913609759
    CPU time for vxc     38.40 sec, wall time     15.88 sec
E1 = -4123.518455320414  Ecoul = 1906.5496640552665  Exc = -124.75756902370071
cycle= 10 E= -835.602791055154  delta_E= -3.7e-08  |g|= 0.000104  |ddm|= 0.000525
    CPU time for cycle= 10     38.80 sec, wall time     15.94 sec
  HOMO = -0.103673452717482  LUMO = -0.0230173127980808
  mo_energy =
[-10.03633514 -10.02917859 -10.02805582 -10.02767889 -10.02573339
 -10.02431274 -10.02350647 -10.02306746 -10.02125634 -10.01579976
 -10.01564631 -10.01515656 -10.01270299 -10.01265921 -10.01129482
 -10.01069939 -10.01066725 -10.00614249 -10.00601382 -10.00540055
 -10.00528922 -10.00527608  -0.88192129  -0.8439434   -0.83521862
  -0.79253405  -0.77259429  -0.75094674  -0.73079861  -0.71759194
  -0.70330847  -0.68725019  -0.63884635  -0.63388222  -0.62247269
  -0.57608067  -0.56802611  -0.56180511  -0.55266711  -0.53602918
  -0.50098834  -0.4821435   -0.47939638  -0.46248658  -0.45045704
  -0.44447064  -0.4124344   -0.40605315  -0.40238027  -0.38952169
  -0.38725158  -0.37987061  -0.36764672  -0.35793871  -0.35490904
  -0.35100767  -0.34660831  -0.33788064  -0.33296744  -0.3127243
  -0.3073798   -0.28724813  -0.27874552  -0.27522936  -0.26443814
  -0.24974868  -0.23155614  -0.22945496  -0.22490229  -0.20478964
  -0.19338298  -0.14753455  -0.10367345  -0.02301731   0.01131973
   0.07267807   0.08183918   0.10530734   0.11578473   0.16299302
   0.17061935   0.22210265   0.24366055   0.2530325    0.27862089
   0.28779273   0.28984444   0.31688812   0.3229896    0.33071804
   0.33799948   0.35126188   0.35979341   0.38791315   0.39744554
   0.41697091   0.42764912   0.4480972    0.45489014   0.46903958
   0.47298987   0.48858886   0.50562542   0.51563007   0.54732604
   0.57125018   0.57664195   0.61561069   0.63031002   0.63535064
   0.64700274   0.6692913    0.69303754   0.73676844   0.73799554
   0.76668599   0.79905696   0.81236863   0.86923759   0.88753794
   0.92199153   0.9429739    1.01484053   1.04334978]
nelec by numeric integration = 145.99999913610398
    CPU time for vxc     37.74 sec, wall time     15.65 sec
E1 = -4123.518661571201  Ecoul = 1906.5498720197386  Exc = -124.75757074097879
cycle= 11 E= -835.602791058747  delta_E= -3.59e-09  |g|= 4.39e-05  |ddm|= 0.000195
    CPU time for cycle= 11     38.26 sec, wall time     15.73 sec
  HOMO = -0.103673605113121  LUMO = -0.023015453094094
  mo_energy =
[-10.03634136 -10.0291729  -10.02805434 -10.02767831 -10.02573327
 -10.02430789 -10.02350866 -10.02306177 -10.02124567 -10.01580117
 -10.01565089 -10.0151533  -10.01269748 -10.01266087 -10.0112939
 -10.01069995 -10.01066473 -10.00614    -10.00602308 -10.00540191
 -10.00528926 -10.00526517  -0.88192093  -0.84394224  -0.83521743
  -0.79253351  -0.77259354  -0.75094632  -0.7307981   -0.71759111
  -0.70330706  -0.68724781  -0.63884477  -0.63388122  -0.62247187
  -0.57608005  -0.56802587  -0.56180412  -0.55266645  -0.53602882
  -0.50098758  -0.48214238  -0.47939584  -0.46248561  -0.45045648
  -0.44447004  -0.41243352  -0.4060524   -0.40237981  -0.38952102
  -0.38725149  -0.37987008  -0.36764587  -0.357938    -0.3549087
  -0.35100675  -0.34660818  -0.33787991  -0.33296656  -0.3127239
  -0.30738099  -0.28724768  -0.27874525  -0.27522876  -0.26443727
  -0.2497483   -0.23155633  -0.22945393  -0.22490124  -0.20478884
  -0.193382    -0.14753245  -0.10367361  -0.02301545   0.01132216
   0.07267879   0.08184012   0.10530875   0.11578475   0.1629935
   0.17061959   0.22210359   0.24365946   0.25303322   0.27862025
   0.28779311   0.28984396   0.31688848   0.32298992   0.33071845
   0.33800007   0.35126312   0.35979308   0.38791376   0.39744679
   0.41697203   0.42764975   0.44809746   0.45489162   0.46904075
   0.47299217   0.48859004   0.50562593   0.51563007   0.54732614
   0.57125244   0.57664284   0.61561146   0.63031109   0.63535119
   0.64700319   0.66929189   0.69303824   0.73677011   0.73799507
   0.7666875    0.79905825   0.81236981   0.86923795   0.88754019
   0.92199182   0.94297317   1.01484069   1.04335376]
nelec by numeric integration = 145.99999913610418
    CPU time for vxc     37.92 sec, wall time     15.71 sec
E1 = -4123.518665813461  Ecoul = 1906.5498745825823  Exc = -124.75756906215997
cycle= 12 E= -835.602791059344  delta_E= -5.97e-10  |g|= 1.74e-05  |ddm|= 8.71e-05
    CPU time for cycle= 12     38.39 sec, wall time     15.79 sec
  HOMO = -0.103672375148855  LUMO = -0.0230144322900118
  mo_energy =
[-10.03633878 -10.02917359 -10.02805382 -10.02767447 -10.02573089
 -10.02430487 -10.02350508 -10.02305879 -10.02124562 -10.01580103
 -10.01564959 -10.0151517  -10.01269577 -10.01266141 -10.01129503
 -10.01069688 -10.01066272 -10.00613996 -10.0060187  -10.00539913
 -10.00528717 -10.00526862  -0.88191932  -0.84394072  -0.8352161
  -0.79253231  -0.77259228  -0.75094484  -0.73079683  -0.71759068
  -0.7033063   -0.68724744  -0.63884426  -0.63388041  -0.62247083
  -0.57607927  -0.5680248   -0.56180312  -0.55266581  -0.5360278
  -0.50098698  -0.48214205  -0.47939488  -0.46248454  -0.45045592
  -0.44446902  -0.41243294  -0.40605189  -0.40237913  -0.38952046
  -0.38724993  -0.37986933  -0.36764483  -0.35793674  -0.35490813
  -0.35100592  -0.34660687  -0.33787887  -0.33296544  -0.31272294
  -0.30737975  -0.28724654  -0.27874435  -0.27522759  -0.26443583
  -0.24974698  -0.23155471  -0.22945284  -0.22490021  -0.20478823
  -0.19338125  -0.14753192  -0.10367238  -0.02301443   0.01132289
   0.07267969   0.08184066   0.10530956   0.11578631   0.16299483
   0.1706207    0.22210513   0.24366127   0.25303454   0.27862217
   0.2877943    0.28984566   0.31688957   0.32299033   0.33071971
   0.33800121   0.35126371   0.35979379   0.38791506   0.39744751
   0.41697224   0.42765009   0.44809797   0.45489222   0.46904092
   0.47299212   0.48859084   0.50562574   0.51563074   0.54732739
   0.57125264   0.57664326   0.61561247   0.63031152   0.63535212
   0.64700411   0.6692929    0.69303956   0.7367711    0.73799695
   0.76668864   0.799059     0.81237113   0.8692397    0.88754217
   0.9219935    0.94297521   1.01484187   1.04335414]
nelec by numeric integration = 145.99999913610424
    CPU time for vxc     37.56 sec, wall time     15.63 sec
E1 = -4123.518513191033  Ecoul = 1906.549720111874  Exc = -124.7575672139745
cycle= 13 E= -835.602791059439  delta_E= -9.5e-11  |g|= 6.96e-06  |ddm|= 3.37e-05
    CPU time for cycle= 13     38.16 sec, wall time     15.72 sec
  HOMO = -0.103673137202624  LUMO = -0.0230151043070009
  mo_energy =
[-10.03633962 -10.02917349 -10.0280542  -10.02767796 -10.02573423
 -10.02430841 -10.02350683 -10.02306185 -10.02124478 -10.01580143
 -10.01565097 -10.01515394 -10.01269727 -10.01265987 -10.01129366
 -10.01070007 -10.01066514 -10.00614023 -10.00602093 -10.00540027
 -10.00528784 -10.00526788  -0.88192031  -0.84394228  -0.83521761
  -0.79253325  -0.77259364  -0.75094622  -0.73079754  -0.71759102
  -0.70330695  -0.68724783  -0.63884514  -0.63388083  -0.62247153
  -0.57608006  -0.56802553  -0.56180384  -0.55266646  -0.53602892
  -0.5009877   -0.48214258  -0.47939553  -0.46248525  -0.45045649
  -0.44446995  -0.41243336  -0.40605249  -0.40237971  -0.38952102
  -0.38725084  -0.37987013  -0.36764555  -0.35793795  -0.35490846
  -0.35100678  -0.34660804  -0.33787965  -0.33296662  -0.31272349
  -0.30738006  -0.2872472   -0.27874489  -0.27522883  -0.26443688
  -0.24974788  -0.23155567  -0.22945391  -0.22490121  -0.20478865
  -0.19338184  -0.14753247  -0.10367314  -0.0230151    0.01132231
   0.07267908   0.08184022   0.10530867   0.11578538   0.16299318
   0.17061998   0.22210432   0.24366056   0.25303351   0.2786207
   0.28779324   0.28984449   0.31688881   0.32299013   0.33071891
   0.33800037   0.3512628    0.35979342   0.38791446   0.39744709
   0.41697216   0.42764989   0.44809774   0.45489122   0.46904068
   0.4729916    0.48859036   0.50562585   0.51562992   0.54732643
   0.57125186   0.57664299   0.6156117    0.63031116   0.63535142
   0.64700333   0.6692919    0.69303807   0.73677037   0.73799558
   0.76668729   0.79905779   0.81236975   0.86923786   0.88754037
   0.92199244   0.94297402   1.01484033   1.04335414]
nelec by numeric integration = 145.99999913610543
    CPU time for vxc     37.81 sec, wall time     15.70 sec
E1 = -4123.518643852845  Ecoul = 1906.5498528463688  Exc = -124.75756928662227
Extra cycle  E= -835.602791059404  delta_E= 3.46e-11  |g|= 1.22e-05  |ddm|= 2.62e-05
    CPU time for scf_cycle    586.24 sec, wall time    239.63 sec
    CPU time for SCF    586.24 sec, wall time    239.63 sec
converged SCF energy = -835.602791059404
nelec by numeric integration = 145.99999913610543
    CPU time for vxc     38.32 sec, wall time     15.85 sec
 ** Mulliken pop  **
pop of  0 C 1s            1.99092
pop of  0 C 2s            1.14646
pop of  0 C 2px           0.95055
pop of  0 C 2py           0.96266
pop of  0 C 2pz           0.94149
pop of  1 C 1s            1.99091
pop of  1 C 2s            1.10803
pop of  1 C 2px           0.99164
pop of  1 C 2py           0.97742
pop of  1 C 2pz           0.92014
pop of  2 C 1s            1.99094
pop of  2 C 2s            1.12119
pop of  2 C 2px           0.99220
pop of  2 C 2py           0.96905
pop of  2 C 2pz           0.98946
pop of  3 C 1s            1.99231
pop of  3 C 2s            1.13761
pop of  3 C 2px           1.04191
pop of  3 C 2py           0.95745
pop of  3 C 2pz           1.02916
pop of  4 C 1s            1.99089
pop of  4 C 2s            1.06387
pop of  4 C 2px           1.02227
pop of  4 C 2py           0.98763
pop of  4 C 2pz           1.03932
pop of  5 C 1s            1.99094
pop of  5 C 2s            1.13495
pop of  5 C 2px           0.99500
pop of  5 C 2py           0.96126
pop of  5 C 2pz           1.00958
pop of  6 C 1s            1.99110
pop of  6 C 2s            1.09174
pop of  6 C 2px           0.99229
pop of  6 C 2py           1.05857
pop of  6 C 2pz           1.00087
pop of  7 C 1s            1.99105
pop of  7 C 2s            1.17361
pop of  7 C 2px           0.99524
pop of  7 C 2py           0.98999
pop of  7 C 2pz           0.92822
pop of  8 C 1s            1.99114
pop of  8 C 2s            1.12444
pop of  8 C 2px           0.97181
pop of  8 C 2py           0.93359
pop of  8 C 2pz           0.95847
pop of  9 C 1s            1.99055
pop of  9 C 2s            1.06318
pop of  9 C 2px           1.02006
pop of  9 C 2py           0.97333
pop of  9 C 2pz           0.99434
pop of  10 C 1s           1.99106
pop of  10 C 2s           1.18002
pop of  10 C 2px          0.97469
pop of  10 C 2py          0.93789
pop of  10 C 2pz          0.96898
pop of  11 C 1s           1.99083
pop of  11 C 2s           1.11083
pop of  11 C 2px          0.98844
pop of  11 C 2py          0.95773
pop of  11 C 2pz          0.99159
pop of  12 C 1s           1.99050
pop of  12 C 2s           1.09974
pop of  12 C 2px          0.99974
pop of  12 C 2py          0.95448
pop of  12 C 2pz          0.97034
pop of  13 C 1s           1.99010
pop of  13 C 2s           1.05041
pop of  13 C 2px          1.02709
pop of  13 C 2py          0.99099
pop of  13 C 2pz          0.98918
pop of  14 C 1s           1.99129
pop of  14 C 2s           1.21707
pop of  14 C 2px          0.95652
pop of  14 C 2py          0.90862
pop of  14 C 2pz          0.96096
pop of  15 C 1s           1.99163
pop of  15 C 2s           1.21351
pop of  15 C 2px          0.96755
pop of  15 C 2py          0.91639
pop of  15 C 2pz          0.92335
pop of  16 C 1s           1.99042
pop of  16 C 2s           1.09117
pop of  16 C 2px          0.99574
pop of  16 C 2py          0.96720
pop of  16 C 2pz          0.98748
pop of  17 C 1s           1.99066
pop of  17 C 2s           1.09145
pop of  17 C 2px          1.00847
pop of  17 C 2py          0.94718
pop of  17 C 2pz          0.98192
pop of  18 C 1s           1.99103
pop of  18 C 2s           1.18864
pop of  18 C 2px          0.98821
pop of  18 C 2py          0.93052
pop of  18 C 2pz          0.95442
pop of  19 C 1s           1.99108
pop of  19 C 2s           1.18533
pop of  19 C 2px          0.97488
pop of  19 C 2py          0.93304
pop of  19 C 2pz          0.95908
pop of  20 C 1s           1.99092
pop of  20 C 2s           1.17935
pop of  20 C 2px          0.98038
pop of  20 C 2py          0.98381
pop of  20 C 2pz          0.94484
pop of  21 C 1s           1.99097
pop of  21 C 2s           1.18569
pop of  21 C 2px          0.99951
pop of  21 C 2py          0.96579
pop of  21 C 2pz          0.95108
pop of  22 H 1s           0.94164
pop of  23 H 1s           0.88403
pop of  24 H 1s           0.90545
pop of  25 H 1s           0.89874
pop of  26 H 1s           0.88613
pop of  27 H 1s           0.89861
pop of  28 H 1s           0.91473
pop of  29 H 1s           0.92985
pop of  30 H 1s           0.92604
pop of  31 H 1s           0.96509
pop of  32 H 1s           0.94311
pop of  33 H 1s           0.93666
pop of  34 H 1s           0.91579
pop of  35 H 1s           0.90155
 ** Mulliken atomic charges  **
charge of    0C =      0.00792
charge of    1C =      0.01186
charge of    2C =     -0.06284
charge of    3C =     -0.15845
charge of    4C =     -0.10398
charge of    5C =     -0.09174
charge of    6C =     -0.13457
charge of    7C =     -0.07811
charge of    8C =      0.02055
charge of    9C =     -0.04145
charge of   10C =     -0.05264
charge of   11C =     -0.03942
charge of   12C =     -0.01480
charge of   13C =     -0.04777
charge of   14C =     -0.03446
charge of   15C =     -0.01242
charge of   16C =     -0.03199
charge of   17C =     -0.01967
charge of   18C =     -0.05283
charge of   19C =     -0.04342
charge of   20C =     -0.07929
charge of   21C =     -0.09305
charge of   22H =      0.05836
charge of   23H =      0.11597
charge of   24H =      0.09455
charge of   25H =      0.10126
charge of   26H =      0.11387
charge of   27H =      0.10139
charge of   28H =      0.08527
charge of   29H =      0.07015
charge of   30H =      0.07396
charge of   31H =      0.03491
charge of   32H =      0.05689
charge of   33H =      0.06334
charge of   34H =      0.08421
charge of   35H =      0.09845
Dipole moment(X, Y, Z, Debye): -0.60284, -0.27964, -0.11826
nelec by numeric integration = 145.99999913610543
    CPU time for vxc     37.79 sec, wall time     15.81 sec
E1 = -4123.518643852845  Ecoul = 1906.5498528463688  Exc = -124.75756928662227
nelec by numeric integration = 145.99999913610543
    CPU time for vxc     37.83 sec, wall time     15.73 sec
E1 = -4123.518643852845  Ecoul = 1906.5498528463688  Exc = -124.75756928662227
