System: uname_result(system='Linux', node='cosmopc18', release='5.15.0-97-generic', version='#107-Ubuntu SMP Wed Feb 7 13:26:48 UTC 2024', machine='x86_64')  Threads 4
Python 3.11.8 (main, Feb 26 2024, 21:39:34) [GCC 11.2.0]
numpy 1.26.4  scipy 1.11.4
Date: Tue Apr  9 17:50:51 2024
PySCF version 2.3.0
PySCF path  /home/saade/miniconda3/envs/tutorial/lib/python3.11/site-packages/pyscf

[ENV] PYSCFAD_BACKEND torch
[CONFIG] conf_file None
[INPUT] verbose = 5
[INPUT] max_memory = 4000 
[INPUT] num. atoms = 36
[INPUT] num. electrons = 146
[INPUT] charge = 0
[INPUT] spin (= nelec alpha-beta = 2S) = 0
[INPUT] symmetry False subgroup None
[INPUT] Mole.unit = angstrom
[INPUT] Symbol           X                Y                Z      unit          X                Y                Z       unit  Magmom
[INPUT]  1 C     -0.238167000000   3.547110000000   0.730026000000 AA   -0.450070401909   6.703066433706   1.379549203812 Bohr   0.0
[INPUT]  2 C      0.180096000000   3.573001000000  -0.813525000000 AA    0.340332116130   6.751993332797  -1.537339445487 Bohr   0.0
[INPUT]  3 C      0.099540000000   4.958453000000   1.449431000000 AA    0.188103338439   9.370118171528   2.739027626454 Bohr   0.0
[INPUT]  4 C      0.135662000000   2.315226000000   1.439903000000 AA    0.256364025511   4.375143056472   2.721022315940 Bohr   0.0
[INPUT]  5 C     -0.005002000000   4.949973000000  -1.323234000000 AA   -0.009452410075   9.354093293992  -2.500549858713 Bohr   0.0
[INPUT]  6 C      0.103266000000   2.388928000000  -1.354332000000 AA    0.195144457979   4.514419651305  -2.559316561734 Bohr   0.0
[INPUT]  7 C     -0.109400000000   6.234111000000  -0.856713000000 AA   -0.206736038027  11.780762420138  -1.618952937355 Bohr   0.0
[INPUT]  8 C     -0.045748000000   6.045862000000   0.718144000000 AA   -0.086451190747  11.425023366915   1.357095478000 Bohr   0.0
[INPUT]  9 C      0.036340000000   0.907249000000   0.744469000000 AA    0.068672647367   1.714452136786   1.406842518229 Bohr   0.0
[INPUT] 10 C     -0.182554000000   1.111617000000  -0.668859000000 AA   -0.344977062944   2.100651685411  -1.263960325950 Bohr   0.0
[INPUT] 11 C     -0.125447000000  -0.152140000000   1.500184000000 AA   -0.237060473148  -0.287502932591   2.834936896455 Bohr   0.0
[INPUT] 12 C     -0.014851000000  -0.116118000000  -1.417663000000 AA   -0.028064322676  -0.219431218132  -2.678994806929 Bohr   0.0
[INPUT] 13 C     -0.041437000000  -1.124134000000   0.617901000000 AA   -0.078304581424  -2.124305387312   1.167663662095 Bohr   0.0
[INPUT] 14 C      0.057311000000  -1.194307000000  -0.624124000000 AA    0.108302093925  -2.256913138651  -1.179423427768 Bohr   0.0
[INPUT] 15 C     -0.001388000000  -2.341510000000   1.523665000000 AA   -0.002622939861  -4.424812617930   2.879309555585 Bohr   0.0
[INPUT] 16 C      0.086642000000  -2.335746000000  -1.488956000000 AA    0.163729650885  -4.413920236548  -2.813719051528 Bohr   0.0
[INPUT] 17 C      0.102140000000  -3.687115000000   0.570730000000 AA    0.193016626363  -6.967637539776   1.078523391073 Bohr   0.0
[INPUT] 18 C     -0.033815000000  -3.878055000000  -0.821624000000 AA   -0.063901088902  -7.328461846000  -1.552644337370 Bohr   0.0
[INPUT] 19 C     -0.071358000000  -4.643564000000   1.456745000000 AA   -0.134847076797  -8.775064201890   2.752849083330 Bohr   0.0
[INPUT] 20 C     -0.118290000000  -4.951662000000  -1.558689000000 AA   -0.223535703275  -9.357285041416  -2.945495323372 Bohr   0.0
[INPUT] 21 C     -0.140060000000  -6.106919000000   0.714615000000 AA   -0.264675041007 -11.540404374903   1.350426634506 Bohr   0.0
[INPUT] 22 C      0.146410000000  -6.190067000000  -0.743821000000 AA    0.276674801898 -11.697531322708  -1.405617975700 Bohr   0.0
[INPUT] 23 H     -0.215628000000   5.050826000000   2.475347000000 AA   -0.407477864788   9.544677842832   4.677727893264 Bohr   0.0
[INPUT] 24 H     -0.116160000000   2.429488000000   2.554843000000 AA   -0.219510586629   4.591066942917   4.827953561262 Bohr   0.0
[INPUT] 25 H      0.089590000000   4.918610000000  -2.552788000000 AA    0.169300563500   9.294825813547  -4.824070174076 Bohr   0.0
[INPUT] 26 H     -0.016900000000   2.496392000000  -2.533126000000 AA   -0.031936371505   4.717497179555  -4.786914379015 Bohr   0.0
[INPUT] 27 H      0.129038000000   6.894449000000  -1.337667000000 AA    0.243846479662  13.028620389781  -2.527824275869 Bohr   0.0
[INPUT] 28 H     -0.023466000000   7.028980000000   1.290734000000 AA   -0.044344313239  13.282847135045   2.439133759664 Bohr   0.0
[INPUT] 29 H     -0.003817000000  -0.063985000000   2.443073000000 AA   -0.007213084617  -0.120914126080   4.616738872320 Bohr   0.0
[INPUT] 30 H     -0.031993000000  -0.007854000000  -2.367649000000 AA   -0.060458007903  -0.014841908982  -4.474208169100 Bohr   0.0
[INPUT] 31 H      0.144989000000  -2.516288000000   2.555162000000 AA    0.273989501075  -4.755095170530   4.828556383896 Bohr   0.0
[INPUT] 32 H      0.129505000000  -2.533512000000  -2.665992000000 AA    0.244728981762  -4.787643813299  -5.037994730281 Bohr   0.0
[INPUT] 33 H      0.139948000000  -4.806236000000   2.411412000000 AA    0.264463391681  -9.082469730025   4.556908253490 Bohr   0.0
[INPUT] 34 H     -0.101059000000  -4.925345000000  -2.514815000000 AA   -0.190973832422  -9.307553118996  -4.752311603948 Bohr   0.0
[INPUT] 35 H     -0.082950000000  -7.129016000000   1.123440000000 AA   -0.156752782033 -13.471887777642   2.122993917381 Bohr   0.0
[INPUT] 36 H     -0.003386000000  -7.062153000000  -1.375007000000 AA   -0.006398612658 -13.345535019776  -2.598386649360 Bohr   0.0
[INPUT] ---------------- BASIS SET ---------------- 
[INPUT] l, kappa, [nprim/nctr], expnt,             c_1 c_2 ...
[INPUT] H
[INPUT] 0    0    [3    /1   ]  3.42525091        0.15432897
                                0.62391373        0.53532814
                                0.1688554         0.44463454
[INPUT] C
[INPUT] 0    0    [3    /1   ]  71.616837         0.15432897
                                13.045096         0.53532814
                                3.5305122         0.44463454
[INPUT] 0    0    [3    /1   ]  2.9412494         -0.09996723
                                0.6834831         0.39951283
                                0.2222899         0.70011547
[INPUT] 1    0    [3    /1   ]  2.9412494         0.15591627
                                0.6834831         0.60768372
                                0.2222899         0.39195739

nuclear repulsion = 1485.49580787751
number of shells = 80
number of NR pGTOs = 372
number of NR cGTOs = 124
basis = sto3g
ecp = {}
CPU time:     71538.55
atom C rad-grids = 99, ang-grids = [ 50  50  50  50  50  50  50  50  50  50  50  50  50  50  50  50  50  50
  50  50  50  50  50  50  50  50  50  50  50  50  50  86  86  86  86  86
  86  86  86  86  86  86  86 434 434 434 434 434 434 434 434 434 590 590
 590 590 590 590 590 590 590 590 590 590 590 590 590 590 590 590 590 590
 590 590 590 590 590 590 590 434 434 434 434 434 434 434 434 434 434 434
 434 434 434 434 434 434 434 434 434]
atom H rad-grids = 99, ang-grids = [ 50  50  50  50  50  50  50  50  50  50  50  50  50  50  50  50  50  50
  50  50  50  50  50  50  50  50  50  50  86  86  86  86  86  86  86 434
 434 434 434 434 434 434 434 590 590 590 590 590 590 590 590 590 590 590
 590 590 590 590 590 590 590 590 590 590 590 590 590 590 590 434 434 434
 434 434 434 434 434 434 434 434 434 434 434 434 434 434 434 434 434 434
 434 434 434 434 434 434 434 434 434]
tot_boxes 5270, boxes in each direction [ 8 29 15]
Padding 0 grids
tot grids = 1157832


******** <class 'pyscf.dft.rks.RKS'> ********
method = RKS
initial guess = minao
damping factor = 0
level_shift factor = 0
DIIS = <class 'pyscf.scf.diis.CDIIS'>
diis_start_cycle = 1
diis_space = 8
SCF conv_tol = 1e-10
SCF conv_tol_grad = None
SCF max_cycles = 50
direct_scf = True
direct_scf_tol = 1e-13
chkfile to save SCF result = /home/saade/mlelec/tutorials/tmp4jvd5zqt
max_memory 4000 MB (current use 690 MB)
XC library pyscf.dft.libxc version 6.1.0
    S. Lehtola, C. Steigemann, M. J.T. Oliveira, and M. A.L. Marques.,  SoftwareX 7, 1–5 (2018)
XC functionals = b3lypg
    P. J. Stephens, F. J. Devlin, C. F. Chabalowski, and M. J. Frisch.,  J. Phys. Chem. 98, 11623 (1994)
radial grids: 
    Treutler-Ahlrichs [JCP 102, 346 (1995); DOI:10.1063/1.469408] (M4) radial grids
    
becke partition: Becke, JCP 88, 2547 (1988); DOI:10.1063/1.454033
pruning grids: <function nwchem_prune at 0x7f9db5616ca0>
grids dens level: 3
symmetrized grids: False
atomic radii adjust function: <function treutler_atomic_radii_adjust at 0x7f9db5617380>
User specified grid scheme (99, 590)
small_rho_cutoff = 1e-07
Set gradient conv threshold to 1e-05
Initial guess from minao.
nelec by numeric integration = 145.26663243531053
    CPU time for vxc     36.46 sec, wall time     15.43 sec
E1 = -4071.7366595033313  Ecoul = 1871.4091267613069  Exc = -125.74874577677775
init E= -840.580470641292
cond(S) = 19.96884858758365
    CPU time for initialize scf     46.06 sec, wall time     17.76 sec
  HOMO = -0.187342332661633  LUMO = -0.144865812134772
  mo_energy =
[-1.01423743e+01 -1.01417133e+01 -1.01393453e+01 -1.01201244e+01
 -1.01077271e+01 -1.01074131e+01 -1.01054370e+01 -1.01011574e+01
 -1.00998237e+01 -1.00979516e+01 -1.00975189e+01 -1.00964054e+01
 -1.00958358e+01 -1.00872149e+01 -1.00795514e+01 -1.00795179e+01
 -1.00774407e+01 -1.00774036e+01 -1.00732844e+01 -1.00688930e+01
 -1.00686074e+01 -1.00602874e+01 -1.12597166e+00 -1.02853127e+00
 -1.01110479e+00 -9.73290203e-01 -9.56325461e-01 -9.15207462e-01
 -8.89449776e-01 -8.79527297e-01 -8.40578754e-01 -8.24578799e-01
 -7.76740021e-01 -7.50985223e-01 -7.42421375e-01 -7.00042153e-01
 -6.89011085e-01 -6.71679383e-01 -6.35182696e-01 -6.27021927e-01
 -6.02367082e-01 -5.88408123e-01 -5.71525534e-01 -5.53492497e-01
 -5.47958608e-01 -5.43488054e-01 -5.14267014e-01 -4.96557239e-01
 -4.90818867e-01 -4.87400214e-01 -4.66758104e-01 -4.61197554e-01
 -4.56914874e-01 -4.46698477e-01 -4.33220833e-01 -4.21246798e-01
 -4.10305118e-01 -4.05884200e-01 -3.97675966e-01 -3.93320768e-01
 -3.74386928e-01 -3.60867935e-01 -3.54893102e-01 -3.43908641e-01
 -3.35241566e-01 -3.13116600e-01 -3.02524670e-01 -2.91419484e-01
 -2.89362051e-01 -2.78511341e-01 -2.60294691e-01 -2.42552802e-01
 -1.87342333e-01 -1.44865812e-01 -1.06251681e-01 -7.60720744e-02
 -5.98026914e-02 -4.91264383e-02 -4.06198246e-02 -9.71262072e-03
  1.85264532e-02  8.04599924e-02  9.96913152e-02  1.14347577e-01
  1.35887769e-01  1.46064957e-01  1.55302124e-01  1.59785250e-01
  1.64206687e-01  1.81658085e-01  1.90563359e-01  2.14807292e-01
  2.29352649e-01  2.30221963e-01  2.51799886e-01  2.74836090e-01
  2.76618921e-01  3.05428204e-01  3.06432727e-01  3.32708376e-01
  3.37510461e-01  3.43950458e-01  3.57157336e-01  3.70722431e-01
  3.88021102e-01  4.21224917e-01  4.28575706e-01  4.35939217e-01
  4.49170937e-01  4.60103130e-01  4.62075537e-01  4.83212255e-01
  4.95036945e-01  5.55356936e-01  5.82995578e-01  6.01044700e-01
  6.09806107e-01  6.23980107e-01  6.30999437e-01  6.69694022e-01
  7.14092104e-01  7.28437449e-01  7.52239646e-01  7.82659654e-01]
nelec by numeric integration = 145.99999540911088
    CPU time for vxc     38.04 sec, wall time     15.69 sec
E1 = -4086.6902141259657  Ecoul = 1890.0122946687595  Exc = -124.4771839502976
cycle= 1 E= -835.659295529993  delta_E= 4.92  |g|= 0.264  |ddm|= 9.18
    CPU time for cycle= 1     38.30 sec, wall time     15.74 sec
  HOMO = -0.0801578131373842  LUMO = -0.00547251176696012
  mo_energy =
[-1.00269844e+01 -1.00262776e+01 -1.00233544e+01 -1.00225999e+01
 -1.00112827e+01 -1.00026929e+01 -9.99547295e+00 -9.99546476e+00
 -9.99350907e+00 -9.99186341e+00 -9.99164923e+00 -9.98809695e+00
 -9.98737011e+00 -9.98279417e+00 -9.97905835e+00 -9.97771721e+00
 -9.96702679e+00 -9.96432660e+00 -9.95638699e+00 -9.95601813e+00
 -9.91984776e+00 -9.91769581e+00 -8.61332805e-01 -7.90867483e-01
 -7.80067344e-01 -7.60854001e-01 -7.45978347e-01 -7.16729784e-01
 -7.00256749e-01 -6.86152113e-01 -6.69869857e-01 -6.45019424e-01
 -6.12761742e-01 -6.05572523e-01 -6.01024463e-01 -5.70608842e-01
 -5.53725418e-01 -5.43274271e-01 -5.02465988e-01 -5.01277090e-01
 -4.87998348e-01 -4.72590624e-01 -4.60770269e-01 -4.50731774e-01
 -4.44430711e-01 -4.34191422e-01 -4.18332911e-01 -3.96129525e-01
 -3.81933057e-01 -3.68772391e-01 -3.65505623e-01 -3.56991605e-01
 -3.50624491e-01 -3.45420585e-01 -3.36509546e-01 -3.22843909e-01
 -3.15515394e-01 -3.02868788e-01 -2.96500658e-01 -2.87013215e-01
 -2.69089684e-01 -2.57276208e-01 -2.50889455e-01 -2.39043179e-01
 -2.27745909e-01 -2.03767094e-01 -1.98877157e-01 -1.85858079e-01
 -1.82762162e-01 -1.70252814e-01 -1.61222643e-01 -1.24561535e-01
 -8.01578131e-02 -5.47251177e-03  4.30494982e-02  7.59099630e-02
  9.03358852e-02  9.61473604e-02  1.08871392e-01  1.53942999e-01
  1.75395667e-01  2.36451688e-01  2.52138153e-01  2.60805582e-01
  2.72770459e-01  2.83093756e-01  3.01640357e-01  3.18379777e-01
  3.21608797e-01  3.33018435e-01  3.38950679e-01  3.57012737e-01
  3.64887205e-01  3.73432483e-01  3.86201341e-01  4.11559544e-01
  4.36140037e-01  4.46773397e-01  4.48503071e-01  4.68487500e-01
  4.79056500e-01  4.89573712e-01  5.05522392e-01  5.37348552e-01
  5.39732201e-01  5.44219299e-01  5.58890099e-01  5.67827274e-01
  6.02849077e-01  6.07517412e-01  6.14844290e-01  6.31796378e-01
  6.47594621e-01  7.06901820e-01  7.35325713e-01  7.44531678e-01
  7.66381271e-01  7.80228440e-01  7.87312345e-01  8.23409272e-01
  8.60155226e-01  8.74884227e-01  9.19738008e-01  9.51193011e-01]
nelec by numeric integration = 145.99999542053732
    CPU time for vxc     38.33 sec, wall time     15.78 sec
E1 = -4082.3738410273927  Ecoul = 1885.577832692675  Exc = -124.34719353773343
cycle= 2 E= -835.647393994941  delta_E= 0.0119  |g|= 0.337  |ddm|= 0.97
    CPU time for cycle= 2     38.76 sec, wall time     15.85 sec
  HOMO = -0.0925165328542556  LUMO = -0.0101681466856854
  mo_energy =
[-10.04616901 -10.0348277  -10.02793496 -10.0272559  -10.02085214
 -10.02002898 -10.01661981 -10.01102213 -10.0093994  -10.00317096
 -10.00223724 -10.00098097  -9.99599263  -9.99390415  -9.99122841
  -9.98996884  -9.98860838  -9.98679565  -9.98205378  -9.97890031
  -9.97684146  -9.9584963   -0.8809573   -0.80657134  -0.78863271
  -0.7724469   -0.75497493  -0.73276558  -0.70848353  -0.69984592
  -0.67355727  -0.65963681  -0.6325637   -0.61878882  -0.5992031
  -0.57696815  -0.56539969  -0.54746494  -0.51627608  -0.50745137
  -0.49834975  -0.48940379  -0.46918692  -0.45923124  -0.45169053
  -0.4428265   -0.4192759   -0.39689149  -0.39071004  -0.38507432
  -0.3781832   -0.37206591  -0.36326239  -0.35683751  -0.33965308
  -0.32775452  -0.31920492  -0.31372795  -0.30657242  -0.2991014
  -0.27940575  -0.27284943  -0.25701802  -0.25273236  -0.23951031
  -0.21933921  -0.21068484  -0.20040128  -0.1979896   -0.18187952
  -0.16823997  -0.14377037  -0.09251653  -0.01016815   0.0297737
   0.06396114   0.08164342   0.08649604   0.09414411   0.13497658
   0.16128395   0.2236931    0.24161537   0.25336862   0.27146649
   0.28170408   0.29858766   0.30277017   0.30540496   0.32445725
   0.32917839   0.3575551    0.35945104   0.36117724   0.39150316
   0.39282141   0.41742561   0.43470546   0.44592224   0.46216919
   0.46308095   0.47757713   0.50296492   0.5148099    0.5258329
   0.54583834   0.55532413   0.56825033   0.58726447   0.5959924
   0.59667666   0.61421493   0.63836779   0.69579263   0.72320983
   0.72982003   0.75647562   0.76572205   0.77346289   0.81257863
   0.85387765   0.85435409   0.89670983   0.92692422]
nelec by numeric integration = 145.99999542660893
    CPU time for vxc     38.27 sec, wall time     15.87 sec
E1 = -4083.520167051362  Ecoul = 1886.7550193439854  Exc = -124.37706707197987
cycle= 3 E= -835.646406901846  delta_E= 0.000987  |g|= 0.337  |ddm|= 1.03
    CPU time for cycle= 3     39.09 sec, wall time     16.00 sec
  HOMO = -0.0939665398119561  LUMO = -0.0184066231158473
  mo_energy =
[-10.05370456 -10.04981093 -10.0260897  -10.02450999 -10.02432443
 -10.02417438 -10.02046389 -10.01918567 -10.01552054 -10.01441149
 -10.0127858  -10.01183274 -10.00844964 -10.00641638 -10.00304354
 -10.00052505  -9.995538    -9.99322391  -9.99308196  -9.99273678
  -9.98479706  -9.97765446  -0.88673159  -0.81238014  -0.79588116
  -0.7816864   -0.76039492  -0.73427032  -0.71384147  -0.70588024
  -0.67957916  -0.66497289  -0.6331972   -0.62020558  -0.60957861
  -0.58100754  -0.56591424  -0.55233626  -0.52118361  -0.51133597
  -0.49898766  -0.49086253  -0.47385446  -0.46133716  -0.45594173
  -0.4476272   -0.42875369  -0.40574891  -0.39364821  -0.39041708
  -0.37858349  -0.37612288  -0.36737915  -0.35936503  -0.34979102
  -0.33222153  -0.32438541  -0.31880284  -0.31315075  -0.30477333
  -0.28466855  -0.2778058   -0.26537781  -0.25993829  -0.2473221
  -0.22299678  -0.21491347  -0.20606186  -0.20249602  -0.18818052
  -0.17362455  -0.14902845  -0.09396654  -0.01840662   0.0255679
   0.05761433   0.0749547    0.08116314   0.09170292   0.12847602
   0.15443984   0.21765567   0.23664121   0.24832101   0.26358227
   0.27613201   0.293797     0.29754349   0.29921575   0.31832066
   0.32496587   0.35240617   0.35624018   0.3584442    0.3887208
   0.39180083   0.41228325   0.43287818   0.44076959   0.46138244
   0.46445066   0.4719507    0.49284574   0.50914414   0.52187713
   0.54404059   0.5528787    0.5620316    0.58291566   0.58863064
   0.59232104   0.61341096   0.62906935   0.69180082   0.7172531
   0.72419616   0.74935496   0.75799389   0.7644499    0.80568456
   0.84849692   0.84960889   0.88927444   0.91900129]
nelec by numeric integration = 145.99999540005282
    CPU time for vxc     38.26 sec, wall time     15.83 sec
E1 = -4084.1741214089798  Ecoul = 1887.3766578519303  Exc = -124.38158126922917
cycle= 4 E= -835.683236948768  delta_E= -0.0368  |g|= 0.131  |ddm|= 0.709
    CPU time for cycle= 4     38.77 sec, wall time     15.91 sec
  HOMO = -0.0960958428259971  LUMO = -0.0203001747048641
  mo_energy =
[-10.0501715  -10.04470051 -10.02728581 -10.02334029 -10.02226404
 -10.02117006 -10.02095361 -10.02004288 -10.01927194 -10.01805371
 -10.0176888  -10.01401011 -10.01074828 -10.00882179 -10.007069
 -10.00675118 -10.00060628  -9.99729492  -9.99583116  -9.99524822
  -9.99044381  -9.98276899  -0.88526498  -0.81149681  -0.79871105
  -0.7806833   -0.76277647  -0.73554285  -0.71613522  -0.70638965
  -0.67945429  -0.66508954  -0.6329264   -0.62209084  -0.61039591
  -0.58121349  -0.56777602  -0.55293878  -0.52036223  -0.51293874
  -0.50105776  -0.48982447  -0.47360653  -0.46223856  -0.45610973
  -0.44938399  -0.42830579  -0.40659161  -0.39553935  -0.38968193
  -0.3804589   -0.37731182  -0.36746186  -0.36112456  -0.34936499
  -0.33244972  -0.32579159  -0.3206716   -0.31431054  -0.30592752
  -0.28556675  -0.2792656   -0.26477872  -0.26032506  -0.24780352
  -0.22420698  -0.21714984  -0.20758406  -0.2037141   -0.19032218
  -0.17523848  -0.1495283   -0.09609584  -0.02030017   0.02362855
   0.05682376   0.07352159   0.0794404    0.08999317   0.12813692
   0.15331654   0.21622743   0.23539843   0.24879116   0.2635934
   0.27384347   0.29339844   0.29637218   0.29766658   0.31744221
   0.32411077   0.35105992   0.35298434   0.35708656   0.38985936
   0.39091325   0.41292939   0.43142532   0.43945795   0.46010654
   0.46342715   0.4722483    0.49122328   0.509614     0.52213801
   0.54251937   0.55061873   0.5597801    0.58302321   0.58992025
   0.59271883   0.61255976   0.62743752   0.6897474    0.71593117
   0.72551607   0.74623073   0.75994263   0.76280792   0.80373012
   0.84681521   0.84926059   0.89101143   0.92120517]
nelec by numeric integration = 145.99999541598848
    CPU time for vxc     38.29 sec, wall time     15.76 sec
E1 = -4084.1295436080054  Ecoul = 1887.3286295416333  Exc = -124.38404578895245
cycle= 5 E= -835.689151977814  delta_E= -0.00592  |g|= 0.0297  |ddm|= 0.227
    CPU time for cycle= 5     38.64 sec, wall time     15.82 sec
  HOMO = -0.0959579304969967  LUMO = -0.0196324660792788
  mo_energy =
[-10.04851916 -10.0428607  -10.02512851 -10.02422837 -10.02271509
 -10.02173028 -10.01830007 -10.01804772 -10.01661198 -10.01520738
 -10.01474258 -10.01228013 -10.01050797 -10.0096993  -10.00726043
 -10.00217001  -9.99964618  -9.99882594  -9.99537137  -9.98883286
  -9.98769189  -9.98649686  -0.88460152  -0.81050031  -0.79643105
  -0.78028727  -0.76141205  -0.73441492  -0.71448057  -0.70487357
  -0.67955532  -0.66441226  -0.63240164  -0.62116331  -0.60954371
  -0.58029793  -0.56710211  -0.55256509  -0.51992566  -0.51168722
  -0.49981306  -0.4893993   -0.47302926  -0.46152934  -0.45580325
  -0.44848846  -0.42766145  -0.40565871  -0.39445838  -0.38909806
  -0.37955354  -0.37569358  -0.36694766  -0.36053525  -0.34886573
  -0.33217732  -0.32597104  -0.31940484  -0.31323232  -0.30464382
  -0.2853197   -0.27792412  -0.26439697  -0.25979647  -0.24691613
  -0.22304322  -0.21555335  -0.20606398  -0.20313047  -0.18894845
  -0.17516154  -0.14873228  -0.09595793  -0.01963247   0.02458892
   0.0581236    0.07437099   0.07977798   0.09080176   0.1293808
   0.15435214   0.21777592   0.23660831   0.24936357   0.26454165
   0.27506538   0.29396592   0.29723703   0.29964431   0.31817873
   0.32454402   0.35255526   0.35356911   0.3579914    0.38929283
   0.39019638   0.41477466   0.43234194   0.43939269   0.46077926
   0.46443841   0.47297893   0.49235092   0.51086993   0.52235315
   0.54193025   0.55111386   0.56041986   0.58445896   0.59133384
   0.59344464   0.61336674   0.62804459   0.69075329   0.71714032
   0.7264209    0.74829432   0.76099299   0.76455877   0.80503618
   0.84807356   0.85045203   0.89161431   0.92244953]
nelec by numeric integration = 145.99999541106206
    CPU time for vxc     37.76 sec, wall time     15.62 sec
E1 = -4084.0315956284867  Ecoul = 1887.22821765734  Exc = -124.38177936192785
cycle= 6 E= -835.689349455564  delta_E= -0.000197  |g|= 0.0183  |ddm|= 0.0623
    CPU time for cycle= 6     38.37 sec, wall time     15.71 sec
  HOMO = -0.0955606209750462  LUMO = -0.0189340302810053
  mo_energy =
[-10.04852201 -10.04341245 -10.02396188 -10.02310979 -10.02143065
 -10.02094361 -10.01932178 -10.01748325 -10.01739024 -10.01528712
 -10.01473179 -10.01146734 -10.00992865 -10.00769521 -10.00727883
 -10.00114527  -9.99808356  -9.99807118  -9.99364286  -9.99065997
  -9.98859525  -9.98478742  -0.88416068  -0.81038532  -0.79645856
  -0.77961798  -0.76112186  -0.73429541  -0.71428981  -0.70494321
  -0.67899807  -0.66392457  -0.63196022  -0.62081218  -0.60921404
  -0.58019527  -0.56678559  -0.55217872  -0.51961001  -0.51164168
  -0.49976997  -0.48902411  -0.47277804  -0.4612986   -0.45533956
  -0.4482489   -0.42745908  -0.40544701  -0.3942549   -0.38873585
  -0.37934855  -0.37581794  -0.3667317   -0.36020959  -0.3484788
  -0.33179454  -0.32536633  -0.31929423  -0.31310107  -0.30462686
  -0.28480524  -0.27784946  -0.26408846  -0.25928198  -0.24663879
  -0.22297517  -0.21573762  -0.2061544   -0.2027693   -0.18883055
  -0.17465441  -0.14836257  -0.09556062  -0.01893403   0.02506052
   0.0582142    0.07482364   0.08024798   0.09109044   0.12966014
   0.15464456   0.21777991   0.23670908   0.24965434   0.26476066
   0.27520568   0.29445969   0.29767425   0.29945729   0.31840398
   0.3250092    0.35263943   0.35359002   0.35809248   0.38993871
   0.39098473   0.41442057   0.43264235   0.44005352   0.46103298
   0.46457445   0.47318922   0.49286038   0.51112177   0.52294203
   0.54251988   0.5516361    0.56094742   0.58449695   0.59123288
   0.59356046   0.61377416   0.62851504   0.6911744    0.71750958
   0.72643528   0.74841896   0.7609107    0.76491213   0.80540865
   0.84822591   0.85044718   0.89209312   0.92256094]
nelec by numeric integration = 145.99999541281417
    CPU time for vxc     37.97 sec, wall time     15.76 sec
E1 = -4084.029705942357  Ecoul = 1887.2253791117282  Exc = -124.38094011729297
cycle= 7 E= -835.689459070411  delta_E= -0.00011  |g|= 0.00323  |ddm|= 0.0261
    CPU time for cycle= 7     38.44 sec, wall time     15.83 sec
  HOMO = -0.0955737777971798  LUMO = -0.018891708798257
  mo_energy =
[-10.04879505 -10.04366504 -10.02388603 -10.02296024 -10.02120134
 -10.02105363 -10.01947713 -10.01725348 -10.01706462 -10.01580516
 -10.0147036  -10.01158228 -10.00961455 -10.00735575 -10.00722043
 -10.00183247  -9.99792264  -9.9973507   -9.99366079  -9.99035717
  -9.98840148  -9.98542478  -0.88424577  -0.81033111  -0.7964467
  -0.77970394  -0.76110628  -0.73427438  -0.7143301   -0.70488086
  -0.67889467  -0.66397319  -0.63198428  -0.62088787  -0.6091756
  -0.58019446  -0.56673307  -0.55215263  -0.51962315  -0.51164016
  -0.49976659  -0.48911195  -0.47277301  -0.46133049  -0.45535063
  -0.4482346   -0.4274445   -0.40540576  -0.39430963  -0.38879606
  -0.3793489   -0.37584085  -0.36674848  -0.36017844  -0.34848992
  -0.33175377  -0.32525504  -0.31925126  -0.31307419  -0.30458992
  -0.28480138  -0.2778791   -0.26402268  -0.25933762  -0.24662952
  -0.22295405  -0.21568936  -0.20610895  -0.2027648   -0.18879436
  -0.17452155  -0.14844934  -0.09557378  -0.01889171   0.02503538
   0.05826844   0.07481997   0.08036844   0.09113139   0.1296192
   0.1546294    0.21780407   0.23674854   0.24966346   0.26481278
   0.2752558    0.2944465    0.29763296   0.29945745   0.3184361
   0.32499409   0.35264296   0.35368345   0.35810319   0.39000938
   0.39099617   0.41443866   0.43254304   0.44022356   0.46105014
   0.46452805   0.47321304   0.49283732   0.51107792   0.52293401
   0.54267746   0.55164507   0.56096512   0.58445211   0.59124092
   0.5936209    0.61369399   0.62852538   0.69118722   0.71744771
   0.72646977   0.74840412   0.76093575   0.76483328   0.80539193
   0.84828815   0.8504717    0.89199904   0.92240003]
nelec by numeric integration = 145.99999541296333
    CPU time for vxc     38.40 sec, wall time     15.77 sec
E1 = -4084.03169962084  Ecoul = 1887.2273887649417  Exc = -124.38095929298021
cycle= 8 E= -835.689462271368  delta_E= -3.2e-06  |g|= 0.000928  |ddm|= 0.0051
    CPU time for cycle= 8     38.81 sec, wall time     15.83 sec
  HOMO = -0.0955832454894914  LUMO = -0.0188766609923861
  mo_energy =
[-10.04865654 -10.0435164  -10.0238454  -10.02300487 -10.02124385
 -10.02107174 -10.01932911 -10.01717921 -10.01714705 -10.01583241
 -10.01488554 -10.01149219 -10.00966685 -10.00736904 -10.007228
 -10.00189344  -9.99789672  -9.99765186  -9.99359726  -9.99053669
  -9.98858174  -9.98550209  -0.8842025   -0.81030947  -0.79651165
  -0.77967035  -0.76114549  -0.73426749  -0.71434325  -0.70493959
  -0.67891917  -0.6640024   -0.63199047  -0.62086321  -0.60919105
  -0.5801761   -0.56676314  -0.5521564   -0.51964761  -0.51167535
  -0.4997988   -0.48911788  -0.47276676  -0.46131511  -0.45534926
  -0.44825523  -0.42742105  -0.40542619  -0.39432914  -0.38875638
  -0.37933493  -0.37588418  -0.36677881  -0.36020465  -0.34848412
  -0.33175389  -0.32527975  -0.31927158  -0.31311276  -0.30460773
  -0.28482211  -0.27792981  -0.26400381  -0.25932465  -0.2466651
  -0.22298346  -0.21572004  -0.20616148  -0.20274319  -0.18883188
  -0.17454362  -0.14849667  -0.09558325  -0.01887666   0.02502682
   0.05821709   0.07482819   0.08033374   0.09114727   0.12955953
   0.15459129   0.2177888    0.23674067   0.24970564   0.26481788
   0.27525331   0.29447427   0.29766177   0.29939371   0.31846954
   0.3249936    0.35260563   0.35368224   0.35810733   0.38996389
   0.39095187   0.4143557    0.43250262   0.44017013   0.46105688
   0.46452105   0.47318944   0.49282738   0.51101505   0.52289232
   0.54261962   0.55164592   0.56096083   0.58441308   0.59119418
   0.59361271   0.61373994   0.62854394   0.6911503    0.71742271
   0.72648573   0.74834502   0.76098396   0.76479243   0.80534653
   0.84823602   0.8505144    0.89203239   0.92249149]
nelec by numeric integration = 145.9999954130336
    CPU time for vxc     37.58 sec, wall time     15.59 sec
E1 = -4084.0314006329577  Ecoul = 1887.2271558655493  Exc = -124.38102564081052
cycle= 9 E= -835.689462530709  delta_E= -2.59e-07  |g|= 0.000401  |ddm|= 0.00184
    CPU time for cycle= 9     38.05 sec, wall time     15.67 sec
  HOMO = -0.0956188157834807  LUMO = -0.01890209997136
  mo_energy =
[-10.04871401 -10.04357341 -10.02390181 -10.02304754 -10.021271
 -10.02109371 -10.01940806 -10.01725233 -10.01714572 -10.01579641
 -10.01481548 -10.0115479  -10.00970722 -10.0074343  -10.00721655
 -10.00182577  -9.99798513  -9.9975826   -9.99365996  -9.99047859
  -9.98855145  -9.98544609  -0.88424451  -0.81034215  -0.79649513
  -0.77970745  -0.76114832  -0.73428757  -0.71434787  -0.70493093
  -0.67893083  -0.66399967  -0.63200576  -0.62089672  -0.6092033
  -0.58020045  -0.56677487  -0.55217148  -0.51964754  -0.51167102
  -0.4998021   -0.48913017  -0.47278347  -0.46133672  -0.45536547
  -0.44826221  -0.42744881  -0.40542922  -0.39432232  -0.38879284
  -0.3793605   -0.37587779  -0.36676374  -0.36020861  -0.34849983
  -0.33177268  -0.32528941  -0.31927989  -0.31310361  -0.30461313
  -0.28482424  -0.27791372  -0.26403552  -0.25935193  -0.24666545
  -0.22298601  -0.21571342  -0.20615175  -0.20277513  -0.18883585
  -0.17455942  -0.14848754  -0.09561882  -0.0189021    0.02501937
   0.05822422   0.07480676   0.08032627   0.09111854   0.12957632
   0.15458978   0.21777981   0.23672444   0.24966566   0.26480118
   0.27524086   0.29444134   0.29763042   0.29940483   0.31843353
   0.32498271   0.352611     0.35369563   0.35808512   0.38997038
   0.39096053   0.41438169   0.43252019   0.44016893   0.46103407
   0.46450246   0.47318444   0.49280944   0.51103511   0.52289226
   0.54262477   0.55162592   0.56094159   0.58441867   0.59120189
   0.59359951   0.61369589   0.6285111    0.69114746   0.71741802
   0.72646425   0.74835843   0.76094309   0.76479705   0.80534883
   0.84823277   0.85047513   0.89199416   0.92244139]
nelec by numeric integration = 145.9999954129861
    CPU time for vxc     38.05 sec, wall time     15.72 sec
E1 = -4084.0327520799474  Ecoul = 1887.2285275668958  Exc = -124.3810459555614
cycle= 10 E= -835.689462591103  delta_E= -6.04e-08  |g|= 0.000113  |ddm|= 0.000747
    CPU time for cycle= 10     38.55 sec, wall time     15.80 sec
  HOMO = -0.0956152376586867  LUMO = -0.0188992749453379
  mo_energy =
[-10.04871627 -10.04358654 -10.0238928  -10.02304385 -10.02127388
 -10.02110163 -10.01940847 -10.01726175 -10.01715979 -10.01579919
 -10.01482484 -10.0115467  -10.00969133 -10.0074197  -10.00725834
 -10.00182351  -9.99796759  -9.99760818  -9.99366371  -9.9904736
  -9.98852615  -9.98545132  -0.88424628  -0.81034877  -0.79649825
  -0.77970637  -0.76114741  -0.73429347  -0.71434887  -0.704927
  -0.6789362   -0.6639997   -0.63200585  -0.62089368  -0.60920486
  -0.58020367  -0.56677504  -0.55217408  -0.51964952  -0.51166976
  -0.49979863  -0.48913046  -0.47278818  -0.46133822  -0.45536478
  -0.44826344  -0.42745005  -0.40543138  -0.39432159  -0.38879409
  -0.37936154  -0.37587185  -0.36676764  -0.3602105   -0.34849997
  -0.33177637  -0.32529603  -0.31928315  -0.31310605  -0.30461768
  -0.28482581  -0.27791306  -0.26403775  -0.25935101  -0.24666465
  -0.22298897  -0.21571693  -0.20615289  -0.20277513  -0.18883599
  -0.1745658   -0.14848688  -0.09561524  -0.01889927   0.02501966
   0.05822286   0.0748049    0.08032149   0.09111501   0.12957673
   0.15459197   0.2177764    0.23672244   0.24966544   0.26479977
   0.2752393    0.29444024   0.29762984   0.29940955   0.31843428
   0.32497977   0.35261145   0.35368699   0.35808814   0.38996454
   0.39095541   0.41438524   0.43252125   0.44015507   0.46103236
   0.46450563   0.47318315   0.49281078   0.51103432   0.52289278
   0.54261702   0.55162482   0.56094129   0.5844228    0.59120439
   0.59359127   0.61369945   0.62851333   0.69114742   0.71741922
   0.7264531    0.74836084   0.76093694   0.76479805   0.80534847
   0.84823666   0.85046764   0.89199171   0.92243733]
nelec by numeric integration = 145.99999541298413
    CPU time for vxc     37.76 sec, wall time     15.65 sec
E1 = -4084.0329267811444  Ecoul = 1887.2287061721108  Exc = -124.38104986354278
cycle= 11 E= -835.689462595066  delta_E= -3.96e-09  |g|= 6.68e-05  |ddm|= 0.00025
    CPU time for cycle= 11     38.07 sec, wall time     15.71 sec
  HOMO = -0.0956137794406398  LUMO = -0.0188977623366588
  mo_energy =
[-10.04871004 -10.04357259 -10.02389156 -10.02303846 -10.0212647
 -10.02109025 -10.01939998 -10.01724813 -10.01714746 -10.01579812
 -10.01482207 -10.01154935 -10.00969363 -10.00742858 -10.00724098
 -10.00182645  -9.99796501  -9.99760092  -9.99365951  -9.99047883
  -9.98853494  -9.98545005  -0.88423961  -0.81034252  -0.79649622
  -0.77970235  -0.7611454   -0.73428848  -0.71434671  -0.70492777
  -0.67893234  -0.66399843  -0.63200275  -0.62089049  -0.6092029
  -0.5802002   -0.56677221  -0.55217141  -0.5196475   -0.51166947
  -0.49979835  -0.48912719  -0.47278388  -0.46133585  -0.45536307
  -0.44826043  -0.42744741  -0.40542979  -0.39432102  -0.38878865
  -0.3793581   -0.3758729   -0.36676654  -0.3602078   -0.34849826
  -0.33177235  -0.32529247  -0.31927987  -0.31310472  -0.30461411
  -0.28482368  -0.27791304  -0.26403409  -0.25934773  -0.2466632
  -0.22298642  -0.21571542  -0.20615182  -0.20277158  -0.18883452
  -0.17456121  -0.14848639  -0.09561378  -0.01889776   0.02502181
   0.05822477   0.0748082    0.08032518   0.0911196    0.12957791
   0.15459314   0.21777981   0.23672578   0.24966873   0.26480161
   0.27524102   0.29444315   0.29763292   0.29940855   0.31843731
   0.32498258   0.35261169   0.35368859   0.35808948   0.38996727
   0.39095788   0.41438341   0.43252123   0.44016117   0.46103519
   0.46450805   0.47318542   0.4928129    0.51103534   0.52289506
   0.54262013   0.5516271    0.5609436    0.58442233   0.59120437
   0.59359668   0.61370274   0.62851637   0.6911506    0.71742154
   0.72645987   0.74836123   0.76094311   0.76480002   0.80535088
   0.84823658   0.8504745    0.89199856   0.92244506]
nelec by numeric integration = 145.9999954129925
    CPU time for vxc     37.93 sec, wall time     15.69 sec
E1 = -4084.03256805183  Ecoul = 1887.2283422680553  Exc = -124.38104469021606
cycle= 12 E= -835.68946259648  delta_E= -1.41e-09  |g|= 2.74e-05  |ddm|= 0.000128
    CPU time for cycle= 12     38.42 sec, wall time     15.76 sec
  HOMO = -0.0956142351287071  LUMO = -0.0188976176673145
  mo_energy =
[-10.04871047 -10.04357423 -10.02389194 -10.02304073 -10.02126887
 -10.02109339 -10.01940103 -10.01724994 -10.01715035 -10.01579996
 -10.01482345 -10.01154386 -10.00969408 -10.00742549 -10.00723885
 -10.00182784  -9.99796697  -9.99759866  -9.99365787  -9.99047824
  -9.98853786  -9.98545267  -0.88424113  -0.81034217  -0.79649739
  -0.77970318  -0.76114677  -0.73428793  -0.71434731  -0.70492868
  -0.67893203  -0.66399921  -0.63200369  -0.6208911   -0.6092031
  -0.58019949  -0.56677319  -0.55217116  -0.51964839  -0.51167007
  -0.49979899  -0.48912831  -0.47278395  -0.46133496  -0.4553636
  -0.44826136  -0.4274471   -0.40543012  -0.39432201  -0.38878968
  -0.37935791  -0.37587408  -0.36676783  -0.3602085   -0.34849868
  -0.33177241  -0.32529142  -0.31928024  -0.3131055   -0.30461443
  -0.28482481  -0.27791407  -0.26403389  -0.25934866  -0.24666429
  -0.22298673  -0.21571571  -0.20615271  -0.20277197  -0.18883526
  -0.17456072  -0.14848778  -0.09561424  -0.01889762   0.02502117
   0.05822405   0.07480816   0.08032541   0.09112003   0.1295763
   0.15459158   0.21777926   0.23672516   0.24966902   0.26480132
   0.27524069   0.29444373   0.29763302   0.29940732   0.3184368
   0.32498116   0.35261085   0.35368779   0.35808909   0.38996727
   0.39095711   0.41438199   0.43252003   0.44016269   0.46103601
   0.4645072    0.47318433   0.49281209   0.5110341    0.52289334
   0.54262143   0.55162781   0.56094383   0.58442113   0.59120355
   0.59359715   0.61370235   0.62851571   0.69114907   0.71742021
   0.726461     0.74835988   0.76094376   0.76479847   0.80534943
   0.8482359    0.85047525   0.891997     0.92244397]
nelec by numeric integration = 145.99999541299061
    CPU time for vxc     37.74 sec, wall time     15.59 sec
E1 = -4084.0326727032575  Ecoul = 1887.2284485552855  Exc = -124.3810463263352
cycle= 13 E= -835.689462596797  delta_E= -3.17e-10  |g|= 5.92e-06  |ddm|= 6.11e-05
    CPU time for cycle= 13     38.20 sec, wall time     15.66 sec
  HOMO = -0.0956143367533306  LUMO = -0.0188975732036872
  mo_energy =
[-10.04871077 -10.04357521 -10.02389086 -10.02303893 -10.02126759
 -10.02109452 -10.01940138 -10.01725086 -10.01714888 -10.01579734
 -10.01482193 -10.01154592 -10.00969541 -10.00742558 -10.00724109
 -10.00182579  -9.99796692  -9.99759975  -9.99365686  -9.99047779
  -9.98853742  -9.98545331  -0.8842412   -0.81034277  -0.79649659
  -0.77970328  -0.76114623  -0.73428856  -0.71434683  -0.70492843
  -0.67893225  -0.66399887  -0.63200366  -0.62089124  -0.60920285
  -0.58020002  -0.56677302  -0.55217134  -0.51964828  -0.5116698
  -0.49979887  -0.48912847  -0.47278424  -0.46133554  -0.45536343
  -0.44826117  -0.42744737  -0.40542977  -0.39432146  -0.38878978
  -0.3793582   -0.37587378  -0.36676712  -0.36020826  -0.3484984
  -0.3317726   -0.32529171  -0.31928001  -0.31310501  -0.3046144
  -0.28482441  -0.27791363  -0.26403419  -0.25934855  -0.24666389
  -0.2229868   -0.21571548  -0.20615244  -0.20277214  -0.18883496
  -0.17456094  -0.14848738  -0.09561434  -0.01889757   0.0250214
   0.05822439   0.07480816   0.08032529   0.0911195    0.12957695
   0.15459212   0.21777933   0.23672528   0.24966862   0.26480161
   0.27524103   0.29444339   0.29763283   0.2994077    0.3184368
   0.32498184   0.3526112    0.35368877   0.35808899   0.38996726
   0.39095735   0.41438248   0.43252039   0.44016196   0.46103559
   0.46450699   0.47318486   0.49281268   0.51103453   0.52289392
   0.54262101   0.55162766   0.56094393   0.58442157   0.59120379
   0.59359659   0.61370194   0.62851586   0.6911494    0.71742055
   0.72645993   0.74836061   0.7609429    0.76479926   0.80535025
   0.84823596   0.85047429   0.89199679   0.92244352]
nelec by numeric integration = 145.9999954129918
    CPU time for vxc     38.32 sec, wall time     15.82 sec
E1 = -4084.0326454039077  Ecoul = 1887.2284214152573  Exc = -124.38104648563967
cycle= 14 E= -835.68946259678  delta_E= 1.73e-11  |g|= 9.37e-06  |ddm|= 2.14e-05
    CPU time for cycle= 14     38.82 sec, wall time     15.89 sec
  HOMO = -0.0956144290185132  LUMO = -0.0188979195089408
  mo_energy =
[-10.04871094 -10.0435737  -10.02389373 -10.02304224 -10.0212686
 -10.02109173 -10.01940097 -10.01724976 -10.01715182 -10.0158021
 -10.01482406 -10.01154459 -10.0096925  -10.00742752 -10.00723933
 -10.00182827  -9.99796574  -9.99759879  -9.99366058  -9.99047857
  -9.98853611  -9.98545008  -0.88424119  -0.8103425   -0.79649773
  -0.77970335  -0.76114685  -0.73428811  -0.71434765  -0.70492836
  -0.67893243  -0.66399924  -0.63200356  -0.62089118  -0.60920367
  -0.58019989  -0.56677322  -0.55217158  -0.51964824  -0.51167014
  -0.49979893  -0.48912805  -0.47278415  -0.46133532  -0.45536379
  -0.4482614   -0.42744757  -0.40543049  -0.394322    -0.38878976
  -0.37935825  -0.37587368  -0.36676773  -0.36020857  -0.34849906
  -0.33177271  -0.32529213  -0.31928064  -0.3131056   -0.30461462
  -0.28482475  -0.27791394  -0.26403432  -0.25934884  -0.24666428
  -0.22298677  -0.21571578  -0.20615262  -0.20277211  -0.18883545
  -0.17456134  -0.14848757  -0.09561443  -0.01889792   0.02502115
   0.058224     0.07480771   0.08032505   0.09111981   0.12957648
   0.15459163   0.21777906   0.23672492   0.2496687    0.26480096
   0.27524036   0.29444318   0.29763262   0.29940757   0.31843666
   0.32498106   0.35261085   0.3536877    0.35808903   0.389967
   0.39095705   0.41438233   0.43252032   0.44016197   0.46103551
   0.46450736   0.47318418   0.49281143   0.51103438   0.52289338
   0.54262082   0.55162714   0.56094317   0.58442126   0.59120369
   0.59359692   0.61370234   0.62851545   0.69114921   0.71742025
   0.72646072   0.74835993   0.76094344   0.7647983    0.80534915
   0.84823611   0.850475     0.89199704   0.92244407]
nelec by numeric integration = 145.9999954129899
    CPU time for vxc     38.02 sec, wall time     15.81 sec
E1 = -4084.0326971363834  Ecoul = 1887.228473406445  Exc = -124.38104674417616
Extra cycle  E= -835.689462596604  delta_E= 1.76e-10  |g|= 2.43e-05  |ddm|= 5.05e-05
    CPU time for scf_cycle    623.66 sec, wall time    254.79 sec
    CPU time for SCF    623.67 sec, wall time    254.79 sec
converged SCF energy = -835.689462596604
nelec by numeric integration = 145.9999954129899
    CPU time for vxc     38.39 sec, wall time     15.86 sec
 ** Mulliken pop  **
pop of  0 C 1s            1.99191
pop of  0 C 2s            1.28939
pop of  0 C 2px           0.92777
pop of  0 C 2py           0.90056
pop of  0 C 2pz           0.89620
pop of  1 C 1s            1.99093
pop of  1 C 2s            1.14309
pop of  1 C 2px           0.98990
pop of  1 C 2py           0.94235
pop of  1 C 2pz           0.95231
pop of  2 C 1s            1.99115
pop of  2 C 2s            1.20264
pop of  2 C 2px           1.01427
pop of  2 C 2py           0.92939
pop of  2 C 2pz           0.97185
pop of  3 C 1s            1.99165
pop of  3 C 2s            1.26708
pop of  3 C 2px           0.93110
pop of  3 C 2py           0.93204
pop of  3 C 2pz           0.94787
pop of  4 C 1s            1.99127
pop of  4 C 2s            1.18326
pop of  4 C 2px           0.93389
pop of  4 C 2py           0.94351
pop of  4 C 2pz           0.95970
pop of  5 C 1s            1.99092
pop of  5 C 2s            1.15807
pop of  5 C 2px           0.98588
pop of  5 C 2py           0.95639
pop of  5 C 2pz           0.97219
pop of  6 C 1s            1.99112
pop of  6 C 2s            1.13250
pop of  6 C 2px           1.05724
pop of  6 C 2py           1.01102
pop of  6 C 2pz           0.96987
pop of  7 C 1s            1.99123
pop of  7 C 2s            1.18403
pop of  7 C 2px           0.96246
pop of  7 C 2py           0.98755
pop of  7 C 2pz           0.92600
pop of  8 C 1s            1.99096
pop of  8 C 2s            1.13370
pop of  8 C 2px           0.97152
pop of  8 C 2py           0.93433
pop of  8 C 2pz           0.95151
pop of  9 C 1s            1.99075
pop of  9 C 2s            1.16310
pop of  9 C 2px           0.99722
pop of  9 C 2py           0.92574
pop of  9 C 2pz           0.92308
pop of  10 C 1s           1.99041
pop of  10 C 2s           1.07653
pop of  10 C 2px          1.02529
pop of  10 C 2py          0.99603
pop of  10 C 2pz          1.03900
pop of  11 C 1s           1.99085
pop of  11 C 2s           1.12479
pop of  11 C 2px          0.96180
pop of  11 C 2py          0.96789
pop of  11 C 2pz          1.03162
pop of  12 C 1s           1.99048
pop of  12 C 2s           1.03315
pop of  12 C 2px          1.00761
pop of  12 C 2py          0.98121
pop of  12 C 2pz          0.98413
pop of  13 C 1s           1.99017
pop of  13 C 2s           1.03725
pop of  13 C 2px          1.04530
pop of  13 C 2py          0.98479
pop of  13 C 2pz          0.98623
pop of  14 C 1s           1.99171
pop of  14 C 2s           1.24338
pop of  14 C 2px          1.00654
pop of  14 C 2py          0.87166
pop of  14 C 2pz          0.93475
pop of  15 C 1s           1.99177
pop of  15 C 2s           1.24756
pop of  15 C 2px          0.95441
pop of  15 C 2py          0.89477
pop of  15 C 2pz          0.93234
pop of  16 C 1s           1.99095
pop of  16 C 2s           1.15099
pop of  16 C 2px          0.95899
pop of  16 C 2py          0.97290
pop of  16 C 2pz          0.94030
pop of  17 C 1s           1.99104
pop of  17 C 2s           1.13105
pop of  17 C 2px          0.99227
pop of  17 C 2py          0.94831
pop of  17 C 2pz          0.94144
pop of  18 C 1s           1.99131
pop of  18 C 2s           1.16054
pop of  18 C 2px          1.00597
pop of  18 C 2py          0.92687
pop of  18 C 2pz          1.00580
pop of  19 C 1s           1.99074
pop of  19 C 2s           1.12950
pop of  19 C 2px          1.01143
pop of  19 C 2py          0.98156
pop of  19 C 2pz          1.02120
pop of  20 C 1s           1.99161
pop of  20 C 2s           1.25972
pop of  20 C 2px          0.94541
pop of  20 C 2py          0.94703
pop of  20 C 2pz          0.93505
pop of  21 C 1s           1.99125
pop of  21 C 2s           1.22501
pop of  21 C 2px          0.97578
pop of  21 C 2py          0.94576
pop of  21 C 2pz          0.93941
pop of  22 H 1s           0.91656
pop of  23 H 1s           0.94291
pop of  24 H 1s           0.96950
pop of  25 H 1s           0.93513
pop of  26 H 1s           0.87488
pop of  27 H 1s           0.93882
pop of  28 H 1s           0.87798
pop of  29 H 1s           0.88696
pop of  30 H 1s           0.90511
pop of  31 H 1s           0.92431
pop of  32 H 1s           0.89521
pop of  33 H 1s           0.89525
pop of  34 H 1s           0.92753
pop of  35 H 1s           0.92372
 ** Mulliken atomic charges  **
charge of    0C =     -0.00583
charge of    1C =     -0.01858
charge of    2C =     -0.10930
charge of    3C =     -0.06974
charge of    4C =     -0.01163
charge of    5C =     -0.06346
charge of    6C =     -0.16174
charge of    7C =     -0.05126
charge of    8C =      0.01798
charge of    9C =      0.00010
charge of   10C =     -0.12726
charge of   11C =     -0.07695
charge of   12C =      0.00341
charge of   13C =     -0.04375
charge of   14C =     -0.04805
charge of   15C =     -0.02085
charge of   16C =     -0.01412
charge of   17C =     -0.00413
charge of   18C =     -0.09050
charge of   19C =     -0.13443
charge of   20C =     -0.07883
charge of   21C =     -0.07721
charge of   22H =      0.08344
charge of   23H =      0.05709
charge of   24H =      0.03050
charge of   25H =      0.06487
charge of   26H =      0.12512
charge of   27H =      0.06118
charge of   28H =      0.12202
charge of   29H =      0.11304
charge of   30H =      0.09489
charge of   31H =      0.07569
charge of   32H =      0.10479
charge of   33H =      0.10475
charge of   34H =      0.07247
charge of   35H =      0.07628
Dipole moment(X, Y, Z, Debye):  0.13109, -1.59571, -0.07848
nelec by numeric integration = 145.9999954129899
    CPU time for vxc     37.87 sec, wall time     15.73 sec
E1 = -4084.0326971363834  Ecoul = 1887.2284734064444  Exc = -124.38104674417617
nelec by numeric integration = 145.9999954129899
    CPU time for vxc     37.84 sec, wall time     15.74 sec
E1 = -4084.0326971363834  Ecoul = 1887.2284734064451  Exc = -124.38104674417616
