System: uname_result(system='Linux', node='cosmopc18', release='5.15.0-97-generic', version='#107-Ubuntu SMP Wed Feb 7 13:26:48 UTC 2024', machine='x86_64')  Threads 4
Python 3.11.8 (main, Feb 26 2024, 21:39:34) [GCC 11.2.0]
numpy 1.26.4  scipy 1.11.4
Date: Tue Apr  9 17:45:47 2024
PySCF version 2.3.0
PySCF path  /home/saade/miniconda3/envs/tutorial/lib/python3.11/site-packages/pyscf

[ENV] PYSCFAD_BACKEND torch
[CONFIG] conf_file None
[INPUT] verbose = 5
[INPUT] max_memory = 4000 
[INPUT] num. atoms = 36
[INPUT] num. electrons = 146
[INPUT] charge = 0
[INPUT] spin (= nelec alpha-beta = 2S) = 0
[INPUT] symmetry False subgroup None
[INPUT] Mole.unit = angstrom
[INPUT] Symbol           X                Y                Z      unit          X                Y                Z       unit  Magmom
[INPUT]  1 C     -0.163528000000   3.640316000000   0.783066000000 AA   -0.309023133698   6.879200246872   1.479780277459 Bohr   0.0
[INPUT]  2 C     -0.034405000000   3.783908000000  -0.602529000000 AA   -0.065016027316   7.150549800551  -1.138614792108 Bohr   0.0
[INPUT]  3 C     -0.077296000000   5.023775000000   1.324186000000 AA   -0.146068270524   9.493558861437   2.502348877983 Bohr   0.0
[INPUT]  4 C     -0.041203000000   2.535252000000   1.491157000000 AA   -0.077862385510   4.790931936756   2.817878338728 Bohr   0.0
[INPUT]  5 C      0.052802000000   4.924264000000  -1.385052000000 AA    0.099781318829   9.305510325055  -2.617368948281 Bohr   0.0
[INPUT]  6 C     -0.112408000000   2.518186000000  -1.353894000000 AA   -0.212420334210   4.758681870714  -2.558488861692 Bohr   0.0
[INPUT]  7 C     -0.115977000000   6.174772000000  -0.918052000000 AA   -0.219164766749  11.668627961633  -1.734866848109 Bohr   0.0
[INPUT]  8 C      0.045915000000   6.229649000000   0.710256000000 AA    0.086766775009  11.772330462171   1.342189318329 Bohr   0.0
[INPUT]  9 C     -0.000725000000   1.303009000000   0.736877000000 AA   -0.001370051440   2.462330147843   1.392495717491 Bohr   0.0
[INPUT] 10 C      0.051064000000   1.345622000000  -0.735428000000 AA    0.096496974825   2.542857047189  -1.389757504337 Bohr   0.0
[INPUT] 11 C      0.057256000000  -0.003789000000   1.532688000000 AA    0.108198158988  -0.007160172286   2.896360554407 Bohr   0.0
[INPUT] 12 C     -0.107354000000   0.089368000000  -1.443622000000 AA   -0.202869658377   0.168881044300  -2.728050207397 Bohr   0.0
[INPUT] 13 C      0.004629000000  -1.390865000000   0.783005000000 AA    0.008747542231  -2.628353926243   1.479665004165 Bohr   0.0
[INPUT] 14 C     -0.121042000000  -1.285427000000  -0.600436000000 AA   -0.228736229570  -2.429104983121  -1.134659595329 Bohr   0.0
[INPUT] 15 C     -0.052340000000  -2.695817000000   1.262923000000 AA   -0.098908265360  -5.094355811947   2.386578586414 Bohr   0.0
[INPUT] 16 C      0.108527000000  -2.368246000000  -1.312610000000 AA    0.205086307121  -4.475336335597  -2.480473408365 Bohr   0.0
[INPUT] 17 C      0.054727000000  -3.615836000000   0.727731000000 AA    0.103419041619  -6.832939751343   1.375212282356 Bohr   0.0
[INPUT] 18 C     -0.102806000000  -3.633939000000  -0.699822000000 AA   -0.194275183962  -6.867149463376  -1.322471915945 Bohr   0.0
[INPUT] 19 C      0.054590000000  -4.904734000000   1.555236000000 AA    0.103160149140  -9.268603973842   2.938970099064 Bohr   0.0
[INPUT] 20 C     -0.019158000000  -4.912354000000  -1.293194000000 AA   -0.036203373094  -9.283003686912  -2.443782485931 Bohr   0.0
[INPUT] 21 C     -0.108385000000  -6.181576000000   0.777757000000 AA   -0.204817966011 -11.681485658184   1.469747721463 Bohr   0.0
[INPUT] 22 C      0.138619000000  -6.051810000000  -0.607411000000 AA    0.261951945661 -11.436263457904  -1.147840435048 Bohr   0.0
[INPUT] 23 H      0.004386000000   4.997619000000   2.456540000000 AA    0.008288338782   9.444131184923   4.642187814039 Bohr   0.0
[INPUT] 24 H     -0.113320000000   2.418533000000   2.537974000000 AA   -0.214143764436   4.570364993223   4.796075771267 Bohr   0.0
[INPUT] 25 H      0.107076000000   4.988196000000  -2.618304000000 AA    0.202344314514   9.426324295651  -4.947877470853 Bohr   0.0
[INPUT] 26 H      0.067303000000   2.339476000000  -2.551299000000 AA    0.127184237362   4.420968914993  -4.821256371877 Bohr   0.0
[INPUT] 27 H     -0.165809000000   7.224966000000  -1.261924000000 AA   -0.313333598988  13.653206999294  -2.384690750016 Bohr   0.0
[INPUT] 28 H      0.031219000000   7.097592000000   1.333173000000 AA    0.058995359883  13.412505023904   2.519331846665 Bohr   0.0
[INPUT] 29 H     -0.156850000000  -0.023915000000   2.484020000000 AA   -0.296403542638  -0.045192800269   4.694117487942 Bohr   0.0
[INPUT] 30 H      0.112889000000   0.053215000000  -2.224218000000 AA    0.213329292476   0.100561775719  -4.203162861328 Bohr   0.0
[INPUT] 31 H     -0.021283000000  -2.356347000000   2.417628000000 AA   -0.040219041109  -4.452850484441   4.568654791080 Bohr   0.0
[INPUT] 32 H      0.121231000000  -2.755460000000  -2.630668000000 AA    0.229093387807  -5.207064747194  -4.971242044657 Bohr   0.0
[INPUT] 33 H      0.051053000000  -4.845588000000   2.654780000000 AA    0.096476187837  -9.156834232479   5.016807120973 Bohr   0.0
[INPUT] 34 H      0.132501000000  -4.901205000000  -2.635911000000 AA    0.250390601231  -9.261935130349  -4.981149878728 Bohr   0.0
[INPUT] 35 H     -0.052785000000  -7.045625000000   1.069201000000 AA   -0.099749193485 -13.314301626389   2.020497062111 Bohr   0.0
[INPUT] 36 H      0.065325000000  -6.941604000000  -1.334039000000 AA    0.123446359087 -13.117730425185  -2.520968349489 Bohr   0.0
[INPUT] ---------------- BASIS SET ---------------- 
[INPUT] l, kappa, [nprim/nctr], expnt,             c_1 c_2 ...
[INPUT] H
[INPUT] 0    0    [3    /1   ]  3.42525091        0.15432897
                                0.62391373        0.53532814
                                0.1688554         0.44463454
[INPUT] C
[INPUT] 0    0    [3    /1   ]  71.616837         0.15432897
                                13.045096         0.53532814
                                3.5305122         0.44463454
[INPUT] 0    0    [3    /1   ]  2.9412494         -0.09996723
                                0.6834831         0.39951283
                                0.2222899         0.70011547
[INPUT] 1    0    [3    /1   ]  2.9412494         0.15591627
                                0.6834831         0.60768372
                                0.2222899         0.39195739

nuclear repulsion = 1488.2311021669
number of shells = 80
number of NR pGTOs = 372
number of NR cGTOs = 124
basis = sto3g
ecp = {}
CPU time:     70796.50
atom C rad-grids = 99, ang-grids = [ 50  50  50  50  50  50  50  50  50  50  50  50  50  50  50  50  50  50
  50  50  50  50  50  50  50  50  50  50  50  50  50  86  86  86  86  86
  86  86  86  86  86  86  86 434 434 434 434 434 434 434 434 434 590 590
 590 590 590 590 590 590 590 590 590 590 590 590 590 590 590 590 590 590
 590 590 590 590 590 590 590 434 434 434 434 434 434 434 434 434 434 434
 434 434 434 434 434 434 434 434 434]
atom H rad-grids = 99, ang-grids = [ 50  50  50  50  50  50  50  50  50  50  50  50  50  50  50  50  50  50
  50  50  50  50  50  50  50  50  50  50  86  86  86  86  86  86  86 434
 434 434 434 434 434 434 434 590 590 590 590 590 590 590 590 590 590 590
 590 590 590 590 590 590 590 590 590 590 590 590 590 590 590 434 434 434
 434 434 434 434 434 434 434 434 434 434 434 434 434 434 434 434 434 434
 434 434 434 434 434 434 434 434 434]
tot_boxes 4743, boxes in each direction [ 7 29 15]
Padding 0 grids
tot grids = 1157832


******** <class 'pyscf.dft.rks.RKS'> ********
method = RKS
initial guess = minao
damping factor = 0
level_shift factor = 0
DIIS = <class 'pyscf.scf.diis.CDIIS'>
diis_start_cycle = 1
diis_space = 8
SCF conv_tol = 1e-10
SCF conv_tol_grad = None
SCF max_cycles = 50
direct_scf = True
direct_scf_tol = 1e-13
chkfile to save SCF result = /home/saade/mlelec/tutorials/tmpypknhfd5
max_memory 4000 MB (current use 690 MB)
XC library pyscf.dft.libxc version 6.1.0
    S. Lehtola, C. Steigemann, M. J.T. Oliveira, and M. A.L. Marques.,  SoftwareX 7, 1–5 (2018)
XC functionals = b3lypg
    P. J. Stephens, F. J. Devlin, C. F. Chabalowski, and M. J. Frisch.,  J. Phys. Chem. 98, 11623 (1994)
radial grids: 
    Treutler-Ahlrichs [JCP 102, 346 (1995); DOI:10.1063/1.469408] (M4) radial grids
    
becke partition: Becke, JCP 88, 2547 (1988); DOI:10.1063/1.454033
pruning grids: <function nwchem_prune at 0x7f9db5616ca0>
grids dens level: 3
symmetrized grids: False
atomic radii adjust function: <function treutler_atomic_radii_adjust at 0x7f9db5617380>
User specified grid scheme (99, 590)
small_rho_cutoff = 1e-07
Set gradient conv threshold to 1e-05
Initial guess from minao.
nelec by numeric integration = 145.26815048118047
    CPU time for vxc     37.43 sec, wall time     15.62 sec
E1 = -4076.816974746909  Ecoul = 1873.4928785992224  Exc = -125.8945751674689
init E= -840.987569148255
cond(S) = 35.073899353707155
    CPU time for initialize scf     46.78 sec, wall time     17.89 sec
  HOMO = -0.207625005821125  LUMO = -0.155895417585549
  mo_energy =
[-1.01797128e+01 -1.01711476e+01 -1.01233418e+01 -1.01093830e+01
 -1.01089148e+01 -1.01078905e+01 -1.01074863e+01 -1.01016691e+01
 -1.00991709e+01 -1.00982536e+01 -1.00959601e+01 -1.00949702e+01
 -1.00942185e+01 -1.00926331e+01 -1.00889967e+01 -1.00887243e+01
 -1.00882925e+01 -1.00852385e+01 -1.00847086e+01 -1.00752887e+01
 -1.00740699e+01 -1.00694275e+01 -1.12943836e+00 -1.06808382e+00
 -1.00354469e+00 -9.79013873e-01 -9.57418400e-01 -9.33241419e-01
 -9.00174438e-01 -8.76427732e-01 -8.56947454e-01 -8.30544334e-01
 -7.99780093e-01 -7.71349768e-01 -7.15944418e-01 -7.11053014e-01
 -6.94551822e-01 -6.66456894e-01 -6.57982219e-01 -6.54088678e-01
 -5.89710689e-01 -5.68204336e-01 -5.65751735e-01 -5.51746018e-01
 -5.38501910e-01 -5.26789679e-01 -5.03491514e-01 -4.97904222e-01
 -4.87590162e-01 -4.79381424e-01 -4.71960447e-01 -4.61325120e-01
 -4.47942265e-01 -4.46911416e-01 -4.37460341e-01 -4.30778015e-01
 -4.23544905e-01 -4.09419475e-01 -3.94540153e-01 -3.91440116e-01
 -3.78171425e-01 -3.72089482e-01 -3.62151697e-01 -3.56191430e-01
 -3.47507225e-01 -3.40467374e-01 -3.14028258e-01 -3.07870714e-01
 -2.97557140e-01 -2.83183516e-01 -2.70259327e-01 -2.40368484e-01
 -2.07625006e-01 -1.55895418e-01 -9.73430653e-02 -6.95826950e-02
 -5.08422564e-02 -3.65912291e-02  4.42401868e-03  1.53112073e-02
  4.55069909e-02  6.47302522e-02  7.20721976e-02  1.01340458e-01
  1.39134700e-01  1.45231732e-01  1.48336535e-01  1.69292460e-01
  1.78706034e-01  1.85363053e-01  1.95596763e-01  2.01439787e-01
  2.34383266e-01  2.41099271e-01  2.52951818e-01  2.69939712e-01
  2.75028794e-01  2.87731812e-01  2.97978208e-01  3.10206572e-01
  3.33654734e-01  3.48401122e-01  3.53554583e-01  3.78231694e-01
  3.96283686e-01  4.10528980e-01  4.35230271e-01  4.54406647e-01
  4.58781335e-01  4.79052540e-01  5.03733114e-01  5.18284726e-01
  5.45521077e-01  5.53936879e-01  5.70453282e-01  5.74106316e-01
  5.84781419e-01  6.08016932e-01  6.70526834e-01  6.82183785e-01
  6.93341843e-01  7.02585125e-01  7.79450641e-01  1.06347668e+00]
nelec by numeric integration = 146.0000019525773
    CPU time for vxc     37.69 sec, wall time     15.62 sec
E1 = -4092.1739120434954  Ecoul = 1892.8751625499979  Exc = -124.57310965737034
cycle= 1 E= -835.640756983967  delta_E= 5.35  |g|= 0.325  |ddm|= 9.22
    CPU time for cycle= 1     37.96 sec, wall time     15.66 sec
  HOMO = -0.0819478202443724  LUMO = 0.0145928807001682
  mo_energy =
[-10.05574723 -10.04075859 -10.03447239 -10.03100138 -10.03088367
 -10.01672896 -10.00551453  -9.99877585  -9.98999999  -9.98307254
  -9.9825325   -9.98130351  -9.98040811  -9.97650701  -9.9762721
  -9.97471481  -9.9612194   -9.95511584  -9.94568439  -9.94156995
  -9.94124688  -9.85444133  -0.8374518   -0.8245122   -0.77388797
  -0.76213434  -0.7305065   -0.71819692  -0.71385322  -0.68227039
  -0.67900254  -0.65907858  -0.6301981   -0.60081531  -0.57369147
  -0.56572835  -0.55093814  -0.54056949  -0.52228125  -0.51130744
  -0.46481882  -0.46234936  -0.45026185  -0.43829849  -0.4354652
  -0.41364028  -0.39648067  -0.38948241  -0.37893074  -0.3661057
  -0.36098786  -0.35314937  -0.35043821  -0.33928032  -0.33118991
  -0.32508999  -0.31181408  -0.29859981  -0.28817157  -0.28446975
  -0.27609805  -0.26732965  -0.26091802  -0.24706186  -0.23877149
  -0.22767587  -0.22046747  -0.19937369  -0.19193622  -0.17046203
  -0.16310068  -0.13483851  -0.08194782   0.01459288   0.04340861
   0.06843623   0.1017707    0.11403939   0.15067123   0.18837877
   0.20782602   0.21852791   0.23589241   0.24778891   0.25997838
   0.28053606   0.29994351   0.32042645   0.32559034   0.3396972
   0.35214653   0.35834416   0.3681229    0.38101639   0.3967712
   0.40523121   0.4165829    0.42346189   0.45309477   0.45894099
   0.48373527   0.49629932   0.5040339    0.52614757   0.53329361
   0.57199818   0.58297656   0.60025903   0.61350378   0.62828135
   0.65408868   0.67698932   0.69286312   0.71198604   0.72678395
   0.74241102   0.74364605   0.7739943    0.81499803   0.83454646
   0.84521721   0.8840031    0.99146307   1.28367428]
nelec by numeric integration = 146.00000188016224
    CPU time for vxc     38.08 sec, wall time     15.69 sec
E1 = -4086.1151092660225  Ecoul = 1886.788666928154  Exc = -124.43131631402713
cycle= 2 E= -835.526656484994  delta_E= 0.114  |g|= 0.617  |ddm|= 1.58
    CPU time for cycle= 2     38.49 sec, wall time     15.76 sec
  HOMO = -0.103064852622178  LUMO = -0.0178694511637368
  mo_energy =
[-10.03613977 -10.02545864 -10.0249376  -10.02065138 -10.01935561
 -10.01811774 -10.01606702 -10.01077708 -10.01053924 -10.00841475
 -10.00635528 -10.00322888  -9.99986338  -9.99868115  -9.99776021
  -9.99263297  -9.9884637   -9.98547878  -9.98053378  -9.97692732
  -9.97565998  -9.95467646  -0.8605143   -0.83367164  -0.78841605
  -0.77092733  -0.75366043  -0.74008974  -0.71143991  -0.69807225
  -0.68508006  -0.66400065  -0.64863876  -0.61745629  -0.58007661
  -0.57363114  -0.56455234  -0.5377744   -0.53629226  -0.52200777
  -0.47583292  -0.46254951  -0.45809063  -0.44998998  -0.44252944
  -0.42105326  -0.40205465  -0.39227504  -0.38592419  -0.37885236
  -0.36949561  -0.36502628  -0.35811109  -0.34806286  -0.34466681
  -0.34057513  -0.33240395  -0.31282572  -0.30225678  -0.29771359
  -0.28718705  -0.2753452   -0.27307641  -0.26085087  -0.25627882
  -0.24245015  -0.23305188  -0.21353926  -0.19737401  -0.18341547
  -0.17139612  -0.13993471  -0.10306485  -0.01786945   0.03976266
   0.06730025   0.0924296    0.10438858   0.14633637   0.1635509
   0.18696642   0.19283271   0.2147418    0.24071129   0.25979329
   0.27826855   0.28431904   0.30900131   0.32136638   0.3324801
   0.33893073   0.34918944   0.36718238   0.38089337   0.39769031
   0.40381734   0.41557261   0.42545358   0.44023411   0.45667923
   0.47325877   0.48595765   0.49883561   0.51498128   0.54214325
   0.5630612    0.58044308   0.59098061   0.5951883    0.62409661
   0.64109742   0.6583634    0.6853432    0.70024355   0.71497122
   0.71687922   0.72852587   0.74677107   0.80386089   0.82160304
   0.8422568    0.85333605   0.90646321   1.25848625]
nelec by numeric integration = 146.00000197465147
    CPU time for vxc     37.49 sec, wall time     15.58 sec
E1 = -4088.131072084778  Ecoul = 1888.6894508739442  Exc = -124.44327812604723
cycle= 3 E= -835.65379716998  delta_E= -0.127  |g|= 0.278  |ddm|=  1.5
    CPU time for cycle= 3     37.92 sec, wall time     15.65 sec
  HOMO = -0.107277587030426  LUMO = -0.0248497659099457
  mo_energy =
[-10.05249618 -10.03641588 -10.02882274 -10.02808993 -10.02522502
 -10.02297597 -10.02122308 -10.02060239 -10.01958228 -10.0194038
 -10.01866709 -10.01628732 -10.0145131  -10.01133391 -10.01077785
 -10.00879715 -10.00841376 -10.00553032 -10.00043512  -9.99989624
  -9.99845289  -9.98672684  -0.88474676  -0.83824207  -0.79353221
  -0.7802384   -0.76502978  -0.74610122  -0.72407638  -0.70276126
  -0.69390386  -0.67284826  -0.64803221  -0.63144814  -0.58851902
  -0.58566145  -0.56847235  -0.54773637  -0.5397518   -0.53561948
  -0.48595199  -0.46848798  -0.46395335  -0.45445796  -0.44775827
  -0.43106845  -0.412295    -0.39771287  -0.39188034  -0.39019327
  -0.37843794  -0.37736598  -0.36654364  -0.35284167  -0.34850187
  -0.34637531  -0.34102739  -0.32144302  -0.30879959  -0.30436461
  -0.29236172  -0.28298946  -0.28059511  -0.27143007  -0.26394054
  -0.24790641  -0.23754469  -0.22469745  -0.20943391  -0.19083312
  -0.18042093  -0.15058379  -0.10727759  -0.02484977   0.02928186
   0.05800877   0.08285796   0.09520514   0.13943904   0.15448436
   0.18003875   0.19181008   0.20786902   0.23185703   0.26054333
   0.26726924   0.28233694   0.31119143   0.31752004   0.32495973
   0.3290558    0.33880704   0.36103721   0.36905659   0.38422448
   0.40086168   0.40528453   0.4157238    0.43530583   0.44658568
   0.46923784   0.477092     0.48834431   0.50634375   0.52651434
   0.5468821    0.56641521   0.58158589   0.59119239   0.61280092
   0.63754902   0.65408804   0.67215131   0.69210963   0.7034183
   0.70969921   0.71453147   0.74392878   0.79322264   0.81675567
   0.83089202   0.83983242   0.91981003   1.22107801]
nelec by numeric integration = 146.00000193604396
    CPU time for vxc     37.73 sec, wall time     15.63 sec
E1 = -4088.932730673644  Ecoul = 1889.4815603080906  Exc = -124.46423804413774
cycle= 4 E= -835.68430624279  delta_E= -0.0305  |g|= 0.0697  |ddm|= 0.596
    CPU time for cycle= 4     38.23 sec, wall time     15.71 sec
  HOMO = -0.110075097778098  LUMO = -0.0264562913983944
  mo_energy =
[-10.04285622 -10.03589968 -10.03256168 -10.03089499 -10.02824513
 -10.0261222  -10.02448396 -10.02412532 -10.0204888  -10.02012206
 -10.01755753 -10.01622998 -10.01273789 -10.01175677 -10.01091026
 -10.01032363 -10.01027545 -10.00909919 -10.00689736 -10.00376553
 -10.00086475  -9.99521575  -0.87890956  -0.84235992  -0.79462218
  -0.77967186  -0.76456777  -0.74856902  -0.72290404  -0.70551548
  -0.69491937  -0.67372868  -0.65003331  -0.63223907  -0.58780531
  -0.58530296  -0.57089705  -0.54823903  -0.54274942  -0.53340129
  -0.48409956  -0.46940312  -0.46469609  -0.45554211  -0.45015825
  -0.43108134  -0.41102183  -0.39941998  -0.39427183  -0.3870444
  -0.38134644  -0.37754692  -0.36736644  -0.35582849  -0.35016052
  -0.34692093  -0.34129632  -0.32061678  -0.30891693  -0.30638171
  -0.29287389  -0.28434811  -0.2799779   -0.270573    -0.26482327
  -0.25098196  -0.24153427  -0.22299429  -0.20963524  -0.194428
  -0.18202704  -0.15171077  -0.1100751   -0.02645629   0.02821163
   0.05656427   0.08160853   0.09247193   0.13612996   0.15477125
   0.18192765   0.19305308   0.20618177   0.23468367   0.2577319
   0.27016641   0.27900574   0.30802412   0.3159277    0.32209945
   0.32838562   0.33751201   0.36060461   0.3679637    0.38424033
   0.39726844   0.4054132    0.41517493   0.43344868   0.44618438
   0.4662649    0.47534227   0.48708538   0.50810818   0.52772413
   0.54977833   0.56867343   0.57944572   0.58815551   0.61185733
   0.63396662   0.65042733   0.67419968   0.69042153   0.70581529
   0.70808804   0.71852368   0.73921942   0.79608884   0.81228344
   0.82928318   0.84163554   0.91533662   1.2285834 ]
nelec by numeric integration = 146.0000019530156
    CPU time for vxc     37.69 sec, wall time     15.63 sec
E1 = -4088.898896611161  Ecoul = 1889.4474897346747  Exc = -124.46538223743278
cycle= 5 E= -835.685686947018  delta_E= -0.00138  |g|= 0.0361  |ddm|= 0.149
    CPU time for cycle= 5     38.12 sec, wall time     15.69 sec
  HOMO = -0.109680551371022  LUMO = -0.0252772764592434
  mo_energy =
[-10.03933042 -10.03542343 -10.032373   -10.02909459 -10.02627071
 -10.02529686 -10.02271244 -10.02115328 -10.0204363  -10.01749188
 -10.01631633 -10.01481525 -10.01246135 -10.01185106 -10.01137344
 -10.01079416 -10.01009262 -10.00957235 -10.00723726 -10.0061664
  -9.99647161  -9.99496023  -0.87771947  -0.84158998  -0.79388872
  -0.77961241  -0.7638427   -0.7479038   -0.72303042  -0.7044561
  -0.6946966   -0.67293404  -0.64933267  -0.6313307   -0.58699581
  -0.58475896  -0.57021246  -0.54785215  -0.54189706  -0.53314109
  -0.48412679  -0.46879947  -0.46433574  -0.45466482  -0.44927243
  -0.43072188  -0.41033354  -0.39903169  -0.3932523   -0.38614622
  -0.38032188  -0.37706258  -0.3660455   -0.35522102  -0.34967098
  -0.34676948  -0.34144761  -0.32088588  -0.30855173  -0.30626689
  -0.29292815  -0.28361924  -0.28051472  -0.27073608  -0.26466066
  -0.25035745  -0.24054505  -0.22269514  -0.20951521  -0.19335177
  -0.18170021  -0.15105068  -0.10968055  -0.02527728   0.02927116
   0.0570891    0.08215869   0.09329243   0.13688008   0.1552834
   0.18163503   0.19153846   0.20637521   0.2346516    0.25846959
   0.26936412   0.27950737   0.308533     0.3165944    0.32418565
   0.32903706   0.33834588   0.36204022   0.36907094   0.38520233
   0.39869499   0.40625627   0.41558116   0.43404978   0.44709044
   0.46780019   0.47695047   0.48744584   0.50778558   0.5275326
   0.54988076   0.56867885   0.58068806   0.58901913   0.61217561
   0.63474643   0.65137988   0.67348444   0.69130361   0.70528655
   0.70851109   0.71723549   0.74042819   0.79531293   0.81310918
   0.83003858   0.84182455   0.91634036   1.23159523]
nelec by numeric integration = 146.00000194342866
    CPU time for vxc     37.60 sec, wall time     15.58 sec
E1 = -4088.881475427664  Ecoul = 1889.4275050020829  Exc = -124.46322172605862
cycle= 6 E= -835.686089984739  delta_E= -0.000403  |g|= 0.0133  |ddm|= 0.065
    CPU time for cycle= 6     37.97 sec, wall time     15.64 sec
  HOMO = -0.109461595513887  LUMO = -0.0247973027131697
  mo_energy =
[-10.04184463 -10.03359249 -10.03098676 -10.02709173 -10.02507814
 -10.02500802 -10.02377163 -10.02224246 -10.01966906 -10.01755931
 -10.01664436 -10.01639625 -10.01078469 -10.01069694 -10.00989591
 -10.00948387 -10.0088195  -10.008402   -10.00737831 -10.00620807
  -9.99590427  -9.99388386  -0.87876792  -0.84052014  -0.79350955
  -0.77927491  -0.76383739  -0.74731294  -0.72259633  -0.70395582
  -0.69407363  -0.67269362  -0.64907492  -0.63104013  -0.58723305
  -0.58459941  -0.56957086  -0.54739705  -0.54127231  -0.53344144
  -0.48409849  -0.46848596  -0.46393765  -0.45466578  -0.44866349
  -0.43055444  -0.41054866  -0.39843499  -0.39280749  -0.38671163
  -0.37999582  -0.3767408   -0.36640592  -0.35446164  -0.34922719
  -0.34642425  -0.34102917  -0.32063003  -0.30847195  -0.30575851
  -0.29257053  -0.28304115  -0.28038786  -0.27060032  -0.26429689
  -0.24968048  -0.23979709  -0.22317306  -0.20905883  -0.19271888
  -0.18120232  -0.15096826  -0.1094616   -0.0247973    0.02931105
   0.05749281   0.08274127   0.09389029   0.1377685    0.15529336
   0.18176565   0.19175126   0.20689909   0.23422858   0.25900973
   0.2691417    0.28032425   0.30917898   0.31704118   0.32502923
   0.32860799   0.33850481   0.36162091   0.36943019   0.38529236
   0.39928299   0.40622233   0.41598931   0.43463968   0.44702745
   0.46806264   0.47667692   0.48821128   0.50775585   0.52810821
   0.54980787   0.56865288   0.5811168    0.58968942   0.61283095
   0.63557003   0.65215092   0.67401083   0.69182516   0.70556949
   0.70896818   0.71743125   0.74121677   0.79554951   0.81417697
   0.83080096   0.8416993    0.91644612   1.22970181]
nelec by numeric integration = 146.00000194651471
    CPU time for vxc     37.95 sec, wall time     15.85 sec
E1 = -4088.8626844653368  Ecoul = 1889.4079587899453  Exc = -124.46252621410076
cycle= 7 E= -835.686149722591  delta_E= -5.97e-05  |g|= 0.00345  |ddm|= 0.0224
    CPU time for cycle= 7     38.43 sec, wall time     15.93 sec
  HOMO = -0.10938307505593  LUMO = -0.0246847014914289
  mo_energy =
[-10.04186254 -10.03357311 -10.03091424 -10.0273078  -10.0250865
 -10.02485009 -10.02391193 -10.02166312 -10.01948172 -10.01670078
 -10.01653986 -10.01566349 -10.01096942 -10.01053035 -10.00981549
 -10.00970214 -10.00917765 -10.00826962 -10.00721869 -10.00630551
  -9.9956351   -9.9942492   -0.87863211  -0.84048742  -0.79343293
  -0.77924881  -0.76378271  -0.74724609  -0.72250228  -0.70391331
  -0.69404807  -0.67261666  -0.6490145   -0.63097545  -0.58713131
  -0.58452802  -0.56953696  -0.54736626  -0.54128252  -0.53330629
  -0.48401184  -0.468438    -0.46390249  -0.45459822  -0.4487166
  -0.4304758   -0.41048569  -0.39839813  -0.39281666  -0.38659121
  -0.37992714  -0.3766872   -0.36628634  -0.35443614  -0.34917941
  -0.34637361  -0.34094212  -0.32054417  -0.30836866  -0.30569244
  -0.29249358  -0.28303765  -0.28032472  -0.27054413  -0.26424713
  -0.24963195  -0.23982317  -0.2229883   -0.20898355  -0.1927108
  -0.1811274   -0.15084636  -0.10938308  -0.0246847    0.02945358
   0.05758071   0.08281204   0.09390191   0.13779891   0.15537823
   0.18181823   0.19186046   0.20695751   0.23438056   0.25898423
   0.26925704   0.28037107   0.30923686   0.31713375   0.32492338
   0.32873711   0.33858015   0.3617022    0.36946241   0.38540334
   0.39920425   0.40634015   0.41601055   0.43468505   0.4471566
   0.46815995   0.47680083   0.48824181   0.50790418   0.52818938
   0.54987026   0.56880223   0.58107906   0.58971163   0.61289565
   0.63560059   0.65217458   0.67406813   0.69185414   0.70567159
   0.70904324   0.71752223   0.74121611   0.79555274   0.81420321
   0.83084642   0.8418255    0.91655455   1.22973818]
nelec by numeric integration = 146.00000194627955
    CPU time for vxc     37.85 sec, wall time     15.67 sec
E1 = -4088.8521360425984  Ecoul = 1889.3973716173255  Exc = -124.4624910499924
cycle= 8 E= -835.686153308364  delta_E= -3.59e-06  |g|= 0.00108  |ddm|= 0.00503
    CPU time for cycle= 8     38.23 sec, wall time     15.73 sec
  HOMO = -0.109437395695476  LUMO = -0.0247328954187175
  mo_energy =
[-10.04180479 -10.03376249 -10.03106918 -10.02744719 -10.02525403
 -10.02487959 -10.02388569 -10.02168816 -10.0196291  -10.01676085
 -10.0165355  -10.01565554 -10.01082349 -10.01079452 -10.00984812
 -10.00968715 -10.00917051 -10.00828883 -10.00736298 -10.00613856
  -9.99576866  -9.99418968  -0.87862133  -0.84060964  -0.79347388
  -0.7792455   -0.76380148  -0.74733145  -0.72251059  -0.70397699
  -0.69407345  -0.67264633  -0.64905032  -0.63100983  -0.5871234
  -0.58455212  -0.56961298  -0.54740755  -0.54134894  -0.53330813
  -0.48400914  -0.46847513  -0.4639323   -0.45462614  -0.44875363
  -0.43048222  -0.4104709   -0.39845804  -0.39286466  -0.38659082
  -0.37999605  -0.37671013  -0.36628477  -0.35452124  -0.34922852
  -0.34640898  -0.34096422  -0.32055655  -0.30837231  -0.30574151
  -0.29251003  -0.28306876  -0.28031386  -0.27053116  -0.2642628
  -0.24971803  -0.23988801  -0.2229804   -0.20899646  -0.19277322
  -0.18115308  -0.15086867  -0.1094374   -0.0247329    0.02943611
   0.05756109   0.0827609    0.09387751   0.13770818   0.15536492
   0.18183358   0.19190715   0.20692459   0.23441578   0.25893367
   0.26929638   0.28027209   0.30914208   0.31707879   0.32488032
   0.32873357   0.33853913   0.36172603   0.36942379   0.38537213
   0.39915432   0.40630556   0.41597128   0.43462851   0.44715758
   0.46810707   0.47677821   0.48816974   0.50791725   0.52815696
   0.54988921   0.56880444   0.58105032   0.58963836   0.61283521
   0.63549936   0.65208002   0.67405576   0.69179911   0.70566897
   0.70899545   0.71756629   0.74113252   0.79560695   0.81408569
   0.83077608   0.84180574   0.91648934   1.22976611]
nelec by numeric integration = 146.00000194641646
    CPU time for vxc     38.13 sec, wall time     15.69 sec
E1 = -4088.8587218608536  Ecoul = 1889.4040403593226  Exc = -124.46257433741229
cycle= 9 E= -835.686153672042  delta_E= -3.64e-07  |g|= 0.000525  |ddm|= 0.0017
    CPU time for cycle= 9     38.50 sec, wall time     15.75 sec
  HOMO = -0.109442588542766  LUMO = -0.0247322792326774
  mo_energy =
[-10.04179405 -10.03369239 -10.0310208  -10.02737721 -10.02520426
 -10.02490003 -10.0238565  -10.02172325 -10.01960427 -10.01675497
 -10.01655504 -10.01572559 -10.0108746  -10.01074145 -10.00981429
 -10.00967541 -10.00921082 -10.00829687 -10.0074459  -10.00619495
  -9.99574621  -9.99423995  -0.87862592  -0.84057976  -0.79347861
  -0.77925813  -0.76380281  -0.74731613  -0.72251612  -0.70397491
  -0.69407653  -0.67264666  -0.64906027  -0.63100485  -0.58713648
  -0.58455043  -0.56959727  -0.54740122  -0.54134141  -0.53330831
  -0.48401962  -0.46846965  -0.4639371   -0.4546284   -0.44875199
  -0.4304879   -0.41048016  -0.39844553  -0.39285599  -0.38659397
  -0.37999192  -0.3767088   -0.36629074  -0.35450112  -0.34922495
  -0.34640506  -0.34096072  -0.32056082  -0.30836884  -0.30572914
  -0.29251035  -0.28307043  -0.28031995  -0.2705426   -0.26426488
  -0.24970242  -0.23987813  -0.22298737  -0.20900412  -0.19277039
  -0.18115532  -0.15087112  -0.10944259  -0.02473228   0.02943582
   0.05755667   0.08276593   0.09387168   0.13772685   0.15535981
   0.1818236    0.19189983   0.20692177   0.23441639   0.25894163
   0.26929538   0.28029581   0.30916488   0.31708352   0.32487622
   0.32872638   0.33853392   0.36171565   0.3694291    0.38538199
   0.39915377   0.40631384   0.41597855   0.43463236   0.44714958
   0.46811012   0.47677711   0.48818771   0.50790146   0.52816631
   0.54987889   0.56878944   0.58104653   0.58964526   0.61284496
   0.63551842   0.65209986   0.67405317   0.69180103   0.70565963
   0.70899259   0.71754122   0.74114028   0.79558043   0.81411223
   0.83078658   0.8417995    0.91646489   1.22977679]
nelec by numeric integration = 146.00000194644528
    CPU time for vxc     37.91 sec, wall time     15.63 sec
E1 = -4088.8575852552553  Ecoul = 1889.4029129671412  Exc = -124.46258364590332
cycle= 10 E= -835.686153767117  delta_E= -9.51e-08  |g|= 0.000168  |ddm|= 0.000734
    CPU time for cycle= 10     38.41 sec, wall time     15.71 sec
  HOMO = -0.109448859056587  LUMO = -0.0247387008077524
  mo_energy =
[-10.04179908 -10.03368873 -10.03102318 -10.02739046 -10.0252239
 -10.02490895 -10.0238565  -10.02172317 -10.01961143 -10.01675915
 -10.01655951 -10.01571507 -10.01089209 -10.01076719 -10.00980406
 -10.00971434 -10.00916608 -10.00829319 -10.00746793 -10.00621188
  -9.99574605  -9.99422764  -0.8786293   -0.84058502  -0.79348454
  -0.77926284  -0.7638085   -0.74732373  -0.72251749  -0.70397624
  -0.69407692  -0.672648    -0.64906921  -0.63100322  -0.58714029
  -0.58455262  -0.56960329  -0.54740007  -0.54133995  -0.53331142
  -0.48402426  -0.46847069  -0.46394008  -0.45463043  -0.44874593
  -0.43049194  -0.4104832   -0.39844888  -0.39285588  -0.38659764
  -0.37999716  -0.37670964  -0.3662922   -0.35450254  -0.3492296
  -0.34641077  -0.34096445  -0.32056614  -0.3083808   -0.3057374
  -0.29251895  -0.28307048  -0.28032711  -0.27054719  -0.2642704
  -0.2497074   -0.23987474  -0.22299544  -0.20900438  -0.19276943
  -0.18115649  -0.15087468  -0.10944886  -0.0247387    0.02943227
   0.05755442   0.08276327   0.09387205   0.13772632   0.15535031
   0.18181753   0.19187553   0.20691658   0.23440868   0.25894374
   0.26928795   0.28029066   0.30915541   0.31707919   0.32488516
   0.32872227   0.33853106   0.3617163    0.36943431   0.38538031
   0.39916411   0.40631227   0.41598104   0.43462409   0.44714481
   0.46810524   0.47677438   0.48818844   0.50789631   0.52816579
   0.54987577   0.56878681   0.58105288   0.58964101   0.6128418
   0.63551491   0.65209315   0.67405124   0.69179956   0.70565633
   0.70898603   0.7175369    0.74113697   0.79557515   0.81410898
   0.83078593   0.84179325   0.91644627   1.22977578]
nelec by numeric integration = 146.00000194646603
    CPU time for vxc     37.72 sec, wall time     15.62 sec
E1 = -4088.8580553843867  Ecoul = 1889.403387193228  Exc = -124.46258775209581
cycle= 11 E= -835.686153776353  delta_E= -9.24e-09  |g|= 8.34e-05  |ddm|= 0.000378
    CPU time for cycle= 11     38.16 sec, wall time     15.69 sec
  HOMO = -0.109445524236096  LUMO = -0.0247346488667038
  mo_energy =
[-10.04179765 -10.03369483 -10.03102306 -10.02738394 -10.0252173
 -10.0249051  -10.02385728 -10.02171825 -10.01960416 -10.01675294
 -10.01654536 -10.01571724 -10.0108768  -10.01075807 -10.00979694
 -10.00969997 -10.00918752 -10.00830294 -10.00746307 -10.00619508
  -9.99574337  -9.99422686  -0.87862731  -0.8405825   -0.7934813
  -0.77925938  -0.76380592  -0.74731985  -0.72251434  -0.70397494
  -0.69407512  -0.67264604  -0.64906566  -0.63100139  -0.58713637
  -0.58455041  -0.5695999   -0.54739918  -0.54134027  -0.53331008
  -0.48402158  -0.46846854  -0.46393775  -0.45462871  -0.44874712
  -0.43048845  -0.41047954  -0.39844655  -0.39285516  -0.38659537
  -0.37999517  -0.37670661  -0.36628991  -0.3545014   -0.34922736
  -0.34640847  -0.3409619   -0.32056363  -0.3083767   -0.30573359
  -0.29251532  -0.28306935  -0.28032479  -0.27054469  -0.26426708
  -0.24970482  -0.23987575  -0.22299283  -0.20900216  -0.1927682
  -0.18115454  -0.15087191  -0.10944552  -0.02473465   0.02943531
   0.0575569    0.08276638   0.09387389   0.13772789   0.15535423
   0.18182013   0.19188039   0.20691954   0.23441028   0.2589422
   0.26928874   0.28029259   0.30915809   0.31708191   0.32488187
   0.32872408   0.33853278   0.36171959   0.36943435   0.38538336
   0.3991607    0.4063146    0.41598194   0.4346292    0.44714961
   0.46810873   0.47677735   0.48819033   0.50789974   0.52816945
   0.54987902   0.5687902    0.58105272   0.58964393   0.61284553
   0.63551621   0.6520961    0.67405459   0.69180117   0.70566013
   0.70898915   0.71754016   0.74113835   0.79558059   0.81411058
   0.83078796   0.84179623   0.91645069   1.22977636]
nelec by numeric integration = 146.00000194645492
    CPU time for vxc     38.26 sec, wall time     15.68 sec
E1 = -4088.857805702851  Ecoul = 1889.4031318120456  Exc = -124.46258205473887
cycle= 12 E= -835.686153778643  delta_E= -2.29e-09  |g|= 1.94e-05  |ddm|= 0.000129
    CPU time for cycle= 12     38.76 sec, wall time     15.75 sec
  HOMO = -0.109444866101534  LUMO = -0.024734279912334
  mo_energy =
[-10.04179249 -10.03369376 -10.03102172 -10.0273852  -10.02521674
 -10.0249042  -10.02385256 -10.02171742 -10.0196051  -10.01675252
 -10.01654633 -10.0157129  -10.01087657 -10.01075848 -10.00979931
 -10.00969477 -10.00918508 -10.00829502 -10.00746265 -10.00619478
  -9.99574128  -9.99422623  -0.8786242   -0.84058231  -0.79348027
  -0.77925795  -0.76380399  -0.74731947  -0.72251353  -0.70397452
  -0.69407428  -0.67264525  -0.64906458  -0.63100127  -0.58713559
  -0.5845494   -0.56959994  -0.54739873  -0.54133999  -0.53330834
  -0.48401996  -0.46846841  -0.463937    -0.45462829  -0.44874703
  -0.43048763  -0.41047881  -0.3984464   -0.39285493  -0.38659324
  -0.37999445  -0.37670638  -0.36628908  -0.35450125  -0.34922675
  -0.34640744  -0.34096089  -0.32056206  -0.30837492  -0.30573288
  -0.29251413  -0.28306866  -0.28032276  -0.27054286  -0.26426597
  -0.24970437  -0.23987558  -0.22299062  -0.20900122  -0.19276785
  -0.18115353  -0.15087068  -0.10944487  -0.02473428   0.0294365
   0.05755782   0.0827667    0.09387472   0.13772803   0.15535622
   0.18182231   0.19188457   0.20692053   0.2344126    0.25894228
   0.26929127   0.28029282   0.30915825   0.3170823    0.32488225
   0.32872629   0.33853358   0.36171926   0.36943417   0.38538377
   0.39916049   0.4063151    0.41598182   0.43462945   0.44715037
   0.46810893   0.47677793   0.48819024   0.50790154   0.52816914
   0.54988052   0.56879164   0.58105286   0.58964407   0.61284568
   0.63551669   0.65209648   0.6740553    0.69180231   0.70566131
   0.70899038   0.71754258   0.74113897   0.79558193   0.8141108
   0.8307887    0.8417985    0.91645187   1.22978002]
nelec by numeric integration = 146.0000019464587
    CPU time for vxc     37.96 sec, wall time     15.70 sec
E1 = -4088.8577025497116  Ecoul = 1889.4030262824604  Exc = -124.46257967841818
cycle= 13 E= -835.686153778768  delta_E= -1.25e-10  |g|= 9.22e-06  |ddm|= 4.16e-05
    CPU time for cycle= 13     38.37 sec, wall time     15.76 sec
  HOMO = -0.109445208630949  LUMO = -0.0247344672926626
  mo_energy =
[-10.04179466 -10.03369404 -10.03102269 -10.02738508 -10.02521716
 -10.02490429 -10.02385403 -10.02171758 -10.01960558 -10.01675329
 -10.01654765 -10.01571528 -10.01087707 -10.01075848 -10.00979849
 -10.00969773 -10.0091858  -10.00829739 -10.00746207 -10.00619564
  -9.99574283  -9.99422756  -0.8786255   -0.84058277  -0.7934808
  -0.77925871  -0.76380493  -0.74731991  -0.72251406  -0.70397492
  -0.69407488  -0.67264579  -0.64906506  -0.63100157  -0.58713612
  -0.58454998  -0.56960012  -0.54739918  -0.54134043  -0.53330902
  -0.48402063  -0.46846877  -0.46393758  -0.45462863  -0.44874733
  -0.43048808  -0.41047934  -0.39844671  -0.39285527  -0.38659417
  -0.37999485  -0.37670672  -0.36628962  -0.35450163  -0.34922716
  -0.34640792  -0.34096132  -0.32056275  -0.30837548  -0.30573317
  -0.29251454  -0.28306914  -0.28032345  -0.27054364  -0.26426658
  -0.24970488  -0.23987595  -0.22299132  -0.20900181  -0.19276835
  -0.18115411  -0.15087134  -0.10944521  -0.02473447   0.02943583
   0.05755724   0.08276635   0.09387399   0.13772757   0.1553553
   0.18182147   0.19188362   0.20692002   0.23441206   0.25894211
   0.26929072   0.28029248   0.30915818   0.31708205   0.32488176
   0.32872541   0.33853314   0.36171904   0.36943407   0.3853834
   0.39916029   0.40631469   0.41598148   0.43462901   0.44714974
   0.46810865   0.47677745   0.48818978   0.50790061   0.52816903
   0.54987973   0.5687908    0.58105232   0.58964372   0.61284524
   0.63551624   0.6520961    0.67405476   0.69180148   0.70566064
   0.70898971   0.71754151   0.74113849   0.79558114   0.81411035
   0.83078795   0.84179747   0.91645182   1.22977861]
nelec by numeric integration = 146.00000194645898
    CPU time for vxc     37.57 sec, wall time     15.52 sec
E1 = -4088.8577692292756  Ecoul = 1889.4030948955067  Exc = -124.46258161192661
cycle= 14 E= -835.686153778795  delta_E= -2.64e-11  |g|= 2.74e-06  |ddm|= 1.56e-05
    CPU time for cycle= 14     37.99 sec, wall time     15.59 sec
  HOMO = -0.109445562104314  LUMO = -0.024734851310195
  mo_energy =
[-10.04179458 -10.03369376 -10.03102225 -10.02738496 -10.02521768
 -10.02490481 -10.02385472 -10.02171823 -10.01960555 -10.0167524
 -10.01654667 -10.01571437 -10.0108773  -10.01075953 -10.00979916
 -10.00969705 -10.00918544 -10.00829761 -10.00746433 -10.00619549
  -9.99574275  -9.99422691  -0.87862557  -0.84058274  -0.79348101
  -0.77925875  -0.76380492  -0.74732001  -0.72251408  -0.70397506
  -0.69407481  -0.67264579  -0.64906536  -0.6310016   -0.58713614
  -0.58455     -0.56960031  -0.54739912  -0.54134036  -0.53330904
  -0.48402076  -0.46846869  -0.46393756  -0.45462869  -0.44874727
  -0.43048819  -0.41047931  -0.3984467   -0.39285524  -0.38659424
  -0.37999508  -0.37670676  -0.36628948  -0.35450156  -0.34922724
  -0.34640803  -0.34096141  -0.32056282  -0.3083756   -0.30573338
  -0.29251472  -0.28306917  -0.28032352  -0.27054366  -0.26426657
  -0.24970491  -0.23987585  -0.22299145  -0.20900178  -0.19276838
  -0.18115406  -0.1508713   -0.10944556  -0.02473485   0.0294359
   0.05755729   0.08276618   0.09387414   0.13772766   0.15535527
   0.18182137   0.19188343   0.20691986   0.23441197   0.25894216
   0.26929063   0.28029246   0.30915789   0.31708182   0.32488193
   0.32872528   0.33853296   0.36171922   0.36943396   0.38538338
   0.39916033   0.40631469   0.41598161   0.43462894   0.44714987
   0.4681085    0.47677748   0.48819      0.50790075   0.52816892
   0.54987974   0.56879086   0.58105251   0.58964361   0.61284525
   0.63551617   0.65209594   0.67405476   0.69180154   0.7056606
   0.7089896    0.71754155   0.74113834   0.79558117   0.8141104
   0.83078814   0.84179741   0.91645083   1.22977844]
nelec by numeric integration = 146.00000194645867
    CPU time for vxc     38.19 sec, wall time     15.77 sec
E1 = -4088.8577731890136  Ecoul = 1889.4030988158543  Exc = -124.46258157252196
Extra cycle  E= -835.68615377878  delta_E= 1.46e-11  |g|= 6.94e-06  |ddm|= 1.64e-05
    CPU time for scf_cycle    620.93 sec, wall time    253.76 sec
    CPU time for SCF    620.93 sec, wall time    253.76 sec
converged SCF energy = -835.68615377878
nelec by numeric integration = 146.00000194645867
    CPU time for vxc     37.91 sec, wall time     15.65 sec
 ** Mulliken pop  **
pop of  0 C 1s            1.99047
pop of  0 C 2s            1.09777
pop of  0 C 2px           1.00483
pop of  0 C 2py           0.96267
pop of  0 C 2pz           0.95487
pop of  1 C 1s            1.99050
pop of  1 C 2s            1.11556
pop of  1 C 2px           1.00579
pop of  1 C 2py           0.94294
pop of  1 C 2pz           0.94542
pop of  2 C 1s            1.99103
pop of  2 C 2s            1.16919
pop of  2 C 2px           0.99137
pop of  2 C 2py           0.93980
pop of  2 C 2pz           0.97457
pop of  3 C 1s            1.99065
pop of  3 C 2s            1.13067
pop of  3 C 2px           1.01954
pop of  3 C 2py           0.95370
pop of  3 C 2pz           1.00148
pop of  4 C 1s            1.99084
pop of  4 C 2s            1.14588
pop of  4 C 2px           1.01416
pop of  4 C 2py           0.94358
pop of  4 C 2pz           0.96881
pop of  5 C 1s            1.99117
pop of  5 C 2s            1.18901
pop of  5 C 2px           0.96329
pop of  5 C 2py           0.94302
pop of  5 C 2pz           0.95801
pop of  6 C 1s            1.99136
pop of  6 C 2s            1.19095
pop of  6 C 2px           0.97506
pop of  6 C 2py           0.98036
pop of  6 C 2pz           0.92565
pop of  7 C 1s            1.99121
pop of  7 C 2s            1.20275
pop of  7 C 2px           0.99366
pop of  7 C 2py           0.96887
pop of  7 C 2pz           0.94294
pop of  8 C 1s            1.99097
pop of  8 C 2s            1.17826
pop of  8 C 2px           0.96824
pop of  8 C 2py           0.91766
pop of  8 C 2pz           0.92774
pop of  9 C 1s            1.99062
pop of  9 C 2s            1.12904
pop of  9 C 2px           0.98481
pop of  9 C 2py           0.96496
pop of  9 C 2pz           0.93885
pop of  10 C 1s           1.99132
pop of  10 C 2s           1.21497
pop of  10 C 2px          0.99685
pop of  10 C 2py          0.90847
pop of  10 C 2pz          0.97960
pop of  11 C 1s           1.99157
pop of  11 C 2s           1.16311
pop of  11 C 2px          1.02283
pop of  11 C 2py          0.93129
pop of  11 C 2pz          1.03081
pop of  12 C 1s           1.99080
pop of  12 C 2s           1.14794
pop of  12 C 2px          0.98774
pop of  12 C 2py          0.93207
pop of  12 C 2pz          0.92537
pop of  13 C 1s           1.99080
pop of  13 C 2s           1.13900
pop of  13 C 2px          0.97842
pop of  13 C 2py          0.94462
pop of  13 C 2pz          0.95777
pop of  14 C 1s           1.99180
pop of  14 C 2s           1.01338
pop of  14 C 2px          1.01979
pop of  14 C 2py          1.02021
pop of  14 C 2pz          1.03652
pop of  15 C 1s           1.99138
pop of  15 C 2s           1.18210
pop of  15 C 2px          0.97437
pop of  15 C 2py          0.94232
pop of  15 C 2pz          0.94972
pop of  16 C 1s           1.99129
pop of  16 C 2s           1.04223
pop of  16 C 2px          1.00392
pop of  16 C 2py          1.02199
pop of  16 C 2pz          0.99985
pop of  17 C 1s           1.99061
pop of  17 C 2s           1.13329
pop of  17 C 2px          0.99225
pop of  17 C 2py          0.95955
pop of  17 C 2pz          0.91661
pop of  18 C 1s           1.99134
pop of  18 C 2s           1.22541
pop of  18 C 2px          0.95924
pop of  18 C 2py          0.90032
pop of  18 C 2pz          0.94972
pop of  19 C 1s           1.99129
pop of  19 C 2s           1.17893
pop of  19 C 2px          0.97960
pop of  19 C 2py          0.95146
pop of  19 C 2pz          0.93330
pop of  20 C 1s           1.99088
pop of  20 C 2s           1.15408
pop of  20 C 2px          1.01439
pop of  20 C 2py          1.01124
pop of  20 C 2pz          0.96302
pop of  21 C 1s           1.99082
pop of  21 C 2s           1.15552
pop of  21 C 2px          0.99351
pop of  21 C 2py          0.98048
pop of  21 C 2pz          0.95484
pop of  22 H 1s           0.94424
pop of  23 H 1s           0.90323
pop of  24 H 1s           0.93135
pop of  25 H 1s           0.93601
pop of  26 H 1s           0.90932
pop of  27 H 1s           0.91429
pop of  28 H 1s           0.90698
pop of  29 H 1s           0.88342
pop of  30 H 1s           0.92458
pop of  31 H 1s           0.94870
pop of  32 H 1s           0.91521
pop of  33 H 1s           0.96649
pop of  34 H 1s           0.88785
pop of  35 H 1s           0.92585
 ** Mulliken atomic charges  **
charge of    0C =     -0.01060
charge of    1C =     -0.00021
charge of    2C =     -0.06597
charge of    3C =     -0.09604
charge of    4C =     -0.06327
charge of    5C =     -0.04450
charge of    6C =     -0.06339
charge of    7C =     -0.09944
charge of    8C =      0.01713
charge of    9C =     -0.00827
charge of   10C =     -0.09121
charge of   11C =     -0.13961
charge of   12C =      0.01609
charge of   13C =     -0.01061
charge of   14C =     -0.08172
charge of   15C =     -0.03990
charge of   16C =     -0.05927
charge of   17C =      0.00768
charge of   18C =     -0.02603
charge of   19C =     -0.03457
charge of   20C =     -0.13362
charge of   21C =     -0.07517
charge of   22H =      0.05576
charge of   23H =      0.09677
charge of   24H =      0.06865
charge of   25H =      0.06399
charge of   26H =      0.09068
charge of   27H =      0.08571
charge of   28H =      0.09302
charge of   29H =      0.11658
charge of   30H =      0.07542
charge of   31H =      0.05130
charge of   32H =      0.08479
charge of   33H =      0.03351
charge of   34H =      0.11215
charge of   35H =      0.07415
Dipole moment(X, Y, Z, Debye):  0.04452,  0.46206,  0.23165
nelec by numeric integration = 146.00000194645867
    CPU time for vxc     37.27 sec, wall time     15.65 sec
E1 = -4088.8577731890136  Ecoul = 1889.403098815854  Exc = -124.46258157252194
nelec by numeric integration = 146.00000194645867
    CPU time for vxc     38.24 sec, wall time     16.15 sec
E1 = -4088.8577731890136  Ecoul = 1889.4030988158543  Exc = -124.46258157252194
