System: uname_result(system='Linux', node='cosmopc18', release='5.15.0-97-generic', version='#107-Ubuntu SMP Wed Feb 7 13:26:48 UTC 2024', machine='x86_64')  Threads 4
Python 3.11.8 (main, Feb 26 2024, 21:39:34) [GCC 11.2.0]
numpy 1.26.4  scipy 1.11.4
Date: Tue Apr  9 17:35:05 2024
PySCF version 2.3.0
PySCF path  /home/saade/miniconda3/envs/tutorial/lib/python3.11/site-packages/pyscf

[ENV] PYSCFAD_BACKEND torch
[CONFIG] conf_file None
[INPUT] verbose = 5
[INPUT] max_memory = 4000 
[INPUT] num. atoms = 36
[INPUT] num. electrons = 146
[INPUT] charge = 0
[INPUT] spin (= nelec alpha-beta = 2S) = 0
[INPUT] symmetry False subgroup None
[INPUT] Mole.unit = angstrom
[INPUT] Symbol           X                Y                Z      unit          X                Y                Z       unit  Magmom
[INPUT]  1 C     -0.268982000000   3.648948000000   0.761547000000 AA   -0.508302312438   6.895512362779   1.439115260984 Bohr   0.0
[INPUT]  2 C      0.115801000000   3.800491000000  -0.771485000000 AA    0.218832174951   7.181887128874  -1.457895359210 Bohr   0.0
[INPUT]  3 C     -0.090728000000   4.990880000000   1.345557000000 AA   -0.171451071830   9.431396320569   2.542734214991 Bohr   0.0
[INPUT]  4 C     -0.157811000000   2.459429000000   1.531711000000 AA   -0.298219569444   4.647647232813   2.894514291984 Bohr   0.0
[INPUT]  5 C      0.026211000000   4.923221000000  -1.361423000000 AA    0.049531611451   9.303539340707  -2.572716609684 Bohr   0.0
[INPUT]  6 C     -0.028675000000   2.509725000000  -1.500074000000 AA   -0.054187896622   4.742692897974  -2.834729026581 Bohr   0.0
[INPUT]  7 C     -0.110494000000   6.343078000000  -0.676755000000 AA   -0.208803398408  11.986680206754  -1.278881603430 Bohr   0.0
[INPUT]  8 C     -0.039996000000   6.222516000000   0.671333000000 AA   -0.075581486078  11.758851045724   1.268635508383 Bohr   0.0
[INPUT]  9 C      0.017354000000   1.138942000000   0.720184000000 AA    0.032794307166   2.152288451764   1.360950519294 Bohr   0.0
[INPUT] 10 C     -0.107739000000   1.167509000000  -0.759663000000 AA   -0.203597202935   2.206272257965  -1.435555016965 Bohr   0.0
[INPUT] 11 C      0.031752000000  -0.018272000000   1.413199000000 AA    0.060002583907  -0.034529075748   2.670559069509 Bohr   0.0
[INPUT] 12 C     -0.119595000000  -0.129351000000  -1.468825000000 AA   -0.226001795867  -0.244437963939  -2.775676974914 Bohr   0.0
[INPUT] 13 C     -0.062874000000  -1.226993000000   0.825361000000 AA   -0.118814640356  -2.318680726758   1.559706243897 Bohr   0.0
[INPUT] 14 C      0.109509000000  -1.261709000000  -0.667002000000 AA    0.206942018175  -2.384284458899  -1.260451104537 Bohr   0.0
[INPUT] 15 C      0.093433000000  -2.555900000000   1.421032000000 AA    0.176562780996  -4.829951001776   2.685361294243 Bohr   0.0
[INPUT] 16 C      0.074001000000  -2.303360000000  -1.404103000000 AA    0.139841622944  -4.352719566278  -2.653370120680 Bohr   0.0
[INPUT] 17 C      0.136819000000  -3.732083000000   0.640823000000 AA    0.258550438637  -7.052614744145   1.210979964322 Bohr   0.0
[INPUT] 18 C      0.045302000000  -3.536156000000  -0.706405000000 AA    0.085608372895  -6.682366373737  -1.334911983023 Bohr   0.0
[INPUT] 19 C     -0.143411000000  -4.992804000000   1.472558000000 AA   -0.271007513250  -9.435032153633   2.782731322537 Bohr   0.0
[INPUT] 20 C     -0.046115000000  -4.951615000000  -1.544293000000 AA   -0.087144720234  -9.357196224288  -2.918290826083 Bohr   0.0
[INPUT] 21 C      0.104101000000  -6.071296000000   0.617495000000 AA    0.196722379293 -11.473086661167   1.166896433288 Bohr   0.0
[INPUT] 22 C     -0.274735000000  -6.099801000000  -0.600244000000 AA   -0.519173906832 -11.526953304348  -1.134296767913 Bohr   0.0
[INPUT] 23 H     -0.058970000000   4.904340000000   2.422404000000 AA   -0.111437149566   9.267859421749   4.577680123051 Bohr   0.0
[INPUT] 24 H      0.108643000000   2.491532000000   2.274002000000 AA    0.205305515351   4.708313110590   4.297240986713 Bohr   0.0
[INPUT] 25 H      0.081169000000   5.017783000000  -2.449628000000 AA    0.153387179805   9.482235622498  -4.629126027066 Bohr   0.0
[INPUT] 26 H      0.195231000000   2.528302000000  -2.619592000000 AA    0.368933121025   4.777798340190  -4.950311438102 Bohr   0.0
[INPUT] 27 H     -0.016389000000   7.014300000000  -1.289966000000 AA   -0.030970721455  13.255105955537  -2.437682450001 Bohr   0.0
[INPUT] 28 H     -0.016339000000   7.167421000000   1.167604000000 AA   -0.030876235149  13.544462709456   2.206451781947 Bohr   0.0
[INPUT] 29 H     -0.110725000000  -0.113121000000   2.394520000000 AA   -0.209239925142  -0.213767708937   4.524986999794 Bohr   0.0
[INPUT] 30 H     -0.021800000000   0.120513000000  -2.360443000000 AA   -0.041196029516   0.227736564450  -4.460590802647 Bohr   0.0
[INPUT] 31 H     -0.093627000000  -2.481266000000   2.579684000000 AA   -0.176929387865  -4.688913182195   4.874896247922 Bohr   0.0
[INPUT] 32 H     -0.246917000000  -2.574349000000  -2.539829000000 AA   -0.466605505499  -4.864814559048  -4.799581213228 Bohr   0.0
[INPUT] 33 H      0.034841000000  -4.868813000000   2.492614000000 AA    0.065839947906  -9.200723121722   4.710357794257 Bohr   0.0
[INPUT] 34 H     -0.176406000000  -4.968923000000  -2.542885000000 AA   -0.333359026730  -9.389903604052  -4.805356216265 Bohr   0.0
[INPUT] 35 H      0.044618000000  -7.089401000000   1.171467000000 AA    0.084315800226 -13.397026277218   2.213751793966 Bohr   0.0
[INPUT] 36 H     -0.104106000000  -7.011508000000  -1.355655000000 AA   -0.196731827924 -13.249829840197  -2.561816669397 Bohr   0.0
[INPUT] ---------------- BASIS SET ---------------- 
[INPUT] l, kappa, [nprim/nctr], expnt,             c_1 c_2 ...
[INPUT] H
[INPUT] 0    0    [3    /1   ]  3.42525091        0.15432897
                                0.62391373        0.53532814
                                0.1688554         0.44463454
[INPUT] C
[INPUT] 0    0    [3    /1   ]  71.616837         0.15432897
                                13.045096         0.53532814
                                3.5305122         0.44463454
[INPUT] 0    0    [3    /1   ]  2.9412494         -0.09996723
                                0.6834831         0.39951283
                                0.2222899         0.70011547
[INPUT] 1    0    [3    /1   ]  2.9412494         0.15591627
                                0.6834831         0.60768372
                                0.2222899         0.39195739

nuclear repulsion = 1479.82231497949
number of shells = 80
number of NR pGTOs = 372
number of NR cGTOs = 124
basis = sto3g
ecp = {}
CPU time:     69227.66
atom C rad-grids = 99, ang-grids = [ 50  50  50  50  50  50  50  50  50  50  50  50  50  50  50  50  50  50
  50  50  50  50  50  50  50  50  50  50  50  50  50  86  86  86  86  86
  86  86  86  86  86  86  86 434 434 434 434 434 434 434 434 434 590 590
 590 590 590 590 590 590 590 590 590 590 590 590 590 590 590 590 590 590
 590 590 590 590 590 590 590 434 434 434 434 434 434 434 434 434 434 434
 434 434 434 434 434 434 434 434 434]
atom H rad-grids = 99, ang-grids = [ 50  50  50  50  50  50  50  50  50  50  50  50  50  50  50  50  50  50
  50  50  50  50  50  50  50  50  50  50  86  86  86  86  86  86  86 434
 434 434 434 434 434 434 434 590 590 590 590 590 590 590 590 590 590 590
 590 590 590 590 590 590 590 590 590 590 590 590 590 590 590 434 434 434
 434 434 434 434 434 434 434 434 434 434 434 434 434 434 434 434 434 434
 434 434 434 434 434 434 434 434 434]
tot_boxes 5270, boxes in each direction [ 8 29 15]
Padding 0 grids
tot grids = 1157832


******** <class 'pyscf.dft.rks.RKS'> ********
method = RKS
initial guess = minao
damping factor = 0
level_shift factor = 0
DIIS = <class 'pyscf.scf.diis.CDIIS'>
diis_start_cycle = 1
diis_space = 8
SCF conv_tol = 1e-10
SCF conv_tol_grad = None
SCF max_cycles = 50
direct_scf = True
direct_scf_tol = 1e-13
chkfile to save SCF result = /home/saade/mlelec/tutorials/tmp_on5gk5e
max_memory 4000 MB (current use 691 MB)
XC library pyscf.dft.libxc version 6.1.0
    S. Lehtola, C. Steigemann, M. J.T. Oliveira, and M. A.L. Marques.,  SoftwareX 7, 1–5 (2018)
XC functionals = b3lypg
    P. J. Stephens, F. J. Devlin, C. F. Chabalowski, and M. J. Frisch.,  J. Phys. Chem. 98, 11623 (1994)
radial grids: 
    Treutler-Ahlrichs [JCP 102, 346 (1995); DOI:10.1063/1.469408] (M4) radial grids
    
becke partition: Becke, JCP 88, 2547 (1988); DOI:10.1063/1.454033
pruning grids: <function nwchem_prune at 0x7f9db5616ca0>
grids dens level: 3
symmetrized grids: False
atomic radii adjust function: <function treutler_atomic_radii_adjust at 0x7f9db5617380>
User specified grid scheme (99, 590)
small_rho_cutoff = 1e-07
Set gradient conv threshold to 1e-05
Initial guess from minao.
nelec by numeric integration = 145.26392353204187
    CPU time for vxc     37.07 sec, wall time     15.57 sec
E1 = -4060.1985347073814  Ecoul = 1865.4762220682724  Exc = -125.83538103134927
init E= -840.735378690966
cond(S) = 19.880267799837615
    CPU time for initialize scf     46.55 sec, wall time     17.87 sec
  HOMO = -0.199041600177483  LUMO = -0.159428523850635
  mo_energy =
[-1.01327311e+01 -1.01255547e+01 -1.01214806e+01 -1.01131227e+01
 -1.01110305e+01 -1.01025983e+01 -1.01024786e+01 -1.01018815e+01
 -1.00981122e+01 -1.00972094e+01 -1.00958016e+01 -1.00950844e+01
 -1.00929972e+01 -1.00915900e+01 -1.00895501e+01 -1.00878295e+01
 -1.00848930e+01 -1.00848363e+01 -1.00837782e+01 -1.00816742e+01
 -1.00773524e+01 -1.00712912e+01 -1.08405409e+00 -1.03610739e+00
 -1.01574138e+00 -9.80559731e-01 -9.46138764e-01 -9.25644048e-01
 -9.14430064e-01 -8.74031574e-01 -8.55357687e-01 -8.25370769e-01
 -7.91495244e-01 -7.66325786e-01 -7.18503648e-01 -7.02025078e-01
 -7.01076479e-01 -6.78356487e-01 -6.67252814e-01 -6.45429068e-01
 -5.80181036e-01 -5.73989250e-01 -5.70084404e-01 -5.57892072e-01
 -5.41958944e-01 -5.33311719e-01 -5.16397848e-01 -5.07096261e-01
 -4.91862802e-01 -4.74380874e-01 -4.65649062e-01 -4.55535161e-01
 -4.51775566e-01 -4.49372892e-01 -4.34488161e-01 -4.24911823e-01
 -4.23124365e-01 -4.11421361e-01 -4.05296076e-01 -3.98039358e-01
 -3.82257289e-01 -3.77467117e-01 -3.70490449e-01 -3.52761158e-01
 -3.45625473e-01 -3.26911818e-01 -3.24824055e-01 -3.06209621e-01
 -2.98040396e-01 -2.84296369e-01 -2.68989184e-01 -2.31624177e-01
 -1.99041600e-01 -1.59428524e-01 -1.14309524e-01 -7.71371368e-02
 -5.89293755e-02 -3.82320224e-02 -1.20005915e-02  2.92894349e-03
  2.59683546e-02  7.54265485e-02  1.09418765e-01  1.26846505e-01
  1.41557481e-01  1.52146388e-01  1.65572818e-01  1.72598972e-01
  1.86775003e-01  2.22954878e-01  2.33168081e-01  2.36325872e-01
  2.55947817e-01  2.63376925e-01  2.68321784e-01  2.74178118e-01
  2.84482888e-01  2.99052065e-01  3.08513027e-01  3.35654048e-01
  3.36827978e-01  3.68221576e-01  3.77054270e-01  3.86492987e-01
  3.96815891e-01  4.07312475e-01  4.34157550e-01  4.46033809e-01
  4.61785985e-01  4.74678828e-01  4.94408593e-01  5.15964110e-01
  5.24980426e-01  5.34497507e-01  5.56419621e-01  5.85113388e-01
  6.05759344e-01  6.29435694e-01  6.48993277e-01  6.66362352e-01
  6.83652515e-01  7.33413185e-01  7.38287280e-01  8.09435881e-01]
nelec by numeric integration = 146.00000225778288
    CPU time for vxc     38.15 sec, wall time     15.70 sec
E1 = -4074.8368831842477  Ecoul = 1883.7782771400214  Exc = -124.53212351990402
cycle= 1 E= -835.768414584637  delta_E= 4.97  |g|= 0.317  |ddm|= 9.17
    CPU time for cycle= 1     38.47 sec, wall time     15.75 sec
  HOMO = -0.0897355820387565  LUMO = -0.0118505575093644
  mo_energy =
[-10.11027608 -10.04065911 -10.033217   -10.01747825 -10.00785237
 -10.0067053  -10.00433158 -10.00186188  -9.99874229  -9.99669789
  -9.99637443  -9.99382004  -9.98771714  -9.98404302  -9.98080852
  -9.97771561  -9.97479007  -9.97352593  -9.97088121  -9.93799939
  -9.9270049   -9.8569141   -0.82974096  -0.80687408  -0.78953798
  -0.75966291  -0.73999658  -0.73025044  -0.69974972  -0.69816483
  -0.68251121  -0.64931707  -0.63713844  -0.61012098  -0.5898072
  -0.5701279   -0.55410947  -0.54401952  -0.52937126  -0.51985535
  -0.47492071  -0.46498502  -0.45912074  -0.45018931  -0.43590074
  -0.42429754  -0.41373875  -0.40888244  -0.3829454   -0.37365076
  -0.37047277  -0.36038353  -0.35525805  -0.34089247  -0.33555269
  -0.32673855  -0.31921627  -0.31296404  -0.30013264  -0.29636
  -0.29129167  -0.2663272   -0.26263657  -0.2547801   -0.23839119
  -0.23093301  -0.22759474  -0.20833118  -0.18452508  -0.18238665
  -0.16343466  -0.12644886  -0.08973558  -0.01185056   0.02064283
   0.06868495   0.08103341   0.12997214   0.13761828   0.15181488
   0.17703011   0.22871755   0.25185968   0.26831939   0.28140038
   0.28767085   0.29960679   0.30718459   0.33065306   0.36160364
   0.36896503   0.37399782   0.38270625   0.40997848   0.41395211
   0.41864845   0.42602687   0.4399893    0.45591092   0.46328223
   0.49150332   0.49874289   0.51054716   0.53037765   0.5508416
   0.55730076   0.5668052    0.58513137   0.59919489   0.62734915
   0.64125676   0.66806883   0.67867058   0.69248407   0.72303275
   0.74373397   0.75822621   0.78479106   0.7969672    0.82642437
   0.83332761   0.8787308    0.89819887   1.02521737]
nelec by numeric integration = 146.00000243860242
    CPU time for vxc     38.19 sec, wall time     15.75 sec
E1 = -4071.7553936693885  Ecoul = 1880.7521708314134  Exc = -124.4219351394548
cycle= 2 E= -835.602842997937  delta_E= 0.166  |g|= 0.699  |ddm|= 1.75
    CPU time for cycle= 2     38.61 sec, wall time     15.82 sec
  HOMO = -0.0875562099919897  LUMO = -0.0168282918923476
  mo_energy =
[-10.0219976  -10.0194413  -10.013498   -10.0127944  -10.01075109
 -10.00959709 -10.00952712 -10.00820799 -10.00536813 -10.0026626
 -10.00136852 -10.00118998  -9.99999651  -9.99900786  -9.99842198
  -9.99811286  -9.99260985  -9.987583    -9.98119547  -9.97262605
  -9.96418756  -9.96279314  -0.83398345  -0.8056143   -0.79532651
  -0.76956317  -0.74214496  -0.73426238  -0.72268778  -0.69454959
  -0.682869    -0.66383404  -0.63828152  -0.61003607  -0.5856545
  -0.57145809  -0.56962112  -0.54710769  -0.53583257  -0.52533664
  -0.4737706   -0.46722312  -0.46250697  -0.45195835  -0.44081709
  -0.43204148  -0.41670109  -0.41002057  -0.38914967  -0.37857075
  -0.37401715  -0.35821454  -0.35581436  -0.34576128  -0.34273178
  -0.33737623  -0.32247186  -0.31605184  -0.30898729  -0.30038062
  -0.29040476  -0.27743637  -0.26822682  -0.26160983  -0.24223715
  -0.2341382   -0.22681824  -0.21169452  -0.20768646  -0.17861396
  -0.16907239  -0.13220768  -0.08755621  -0.01682829   0.01924118
   0.06146292   0.08415274   0.10474243   0.13486962   0.15366698
   0.16756715   0.2197867    0.25285044   0.26886008   0.27906453
   0.29220494   0.29694824   0.32282073   0.334297     0.35982558
   0.37556738   0.37838995   0.40089067   0.40148298   0.41145837
   0.42231665   0.42587137   0.43776326   0.45906881   0.46357852
   0.47558926   0.4999756    0.5127123    0.52755983   0.53569243
   0.54018261   0.56547373   0.58703469   0.60466288   0.61896613
   0.62832436   0.65430637   0.66947089   0.67666667   0.69515446
   0.73593595   0.75156597   0.77801763   0.78945101   0.81809077
   0.82189147   0.87953564   0.8931129    0.94791235]
nelec by numeric integration = 146.00000223955158
    CPU time for vxc     37.73 sec, wall time     15.64 sec
E1 = -4071.358333826379  Ecoul = 1880.167847126476  Exc = -124.4160509446237
cycle= 3 E= -835.784222665034  delta_E= -0.181  |g|= 0.246  |ddm|= 1.68
    CPU time for cycle= 3     38.15 sec, wall time     15.71 sec
  HOMO = -0.0989411089008837  LUMO = -0.0334761004650274
  mo_energy =
[-10.03998822 -10.02918057 -10.02401694 -10.02339367 -10.02304375
 -10.0225351  -10.02114047 -10.01871228 -10.01855387 -10.01606536
 -10.01567795 -10.01373143 -10.01285988 -10.01015115 -10.0095327
 -10.00948787 -10.00482315 -10.00360523  -9.99863475  -9.99549127
  -9.98823219  -9.98804185  -0.85142606  -0.81379465  -0.80313526
  -0.78080506  -0.75720015  -0.73654716  -0.73288393  -0.70648838
  -0.69053054  -0.66670159  -0.64140053  -0.62693959  -0.59252685
  -0.58206626  -0.57232571  -0.556618    -0.5453883   -0.5292488
  -0.47841435  -0.47401486  -0.4697606   -0.46080486  -0.44867779
  -0.43866583  -0.42352507  -0.41489601  -0.40023005  -0.38456509
  -0.38180616  -0.36771028  -0.36543413  -0.35925728  -0.34972451
  -0.34047702  -0.32799623  -0.32463783  -0.31772007  -0.30865364
  -0.30067319  -0.29233532  -0.27761969  -0.2739116   -0.25572615
  -0.2406147   -0.23579419  -0.22045584  -0.2128625   -0.19163655
  -0.17638732  -0.13966308  -0.09894111  -0.0334761    0.01242855
   0.05369115   0.07235122   0.09965622   0.1228211    0.139983
   0.15835486   0.21183823   0.24331426   0.25793715   0.27482003
   0.28223209   0.28986626   0.31100162   0.32348973   0.35807255
   0.36318444   0.36713663   0.38741795   0.39726173   0.40582524
   0.41303954   0.41808267   0.4303489    0.44177329   0.45723397
   0.47696369   0.49359443   0.5029782    0.52007431   0.53001676
   0.54452127   0.55670765   0.57687225   0.59610243   0.60826804
   0.62207161   0.64862209   0.66075448   0.66880361   0.69676881
   0.7203692    0.73964966   0.76480101   0.78240371   0.79936532
   0.81029697   0.86755892   0.87220411   0.94841321]
nelec by numeric integration = 146.00000226888227
    CPU time for vxc     37.88 sec, wall time     15.66 sec
E1 = -4072.5681268370336  Ecoul = 1881.3699036953687  Exc = -124.43117149389462
cycle= 4 E= -835.807079656067  delta_E= -0.0229  |g|= 0.0994  |ddm|= 0.638
    CPU time for cycle= 4     38.27 sec, wall time     15.72 sec
  HOMO = -0.100664941396351  LUMO = -0.0335773886795413
  mo_energy =
[-1.00308973e+01 -1.00272325e+01 -1.00263011e+01 -1.00252224e+01
 -1.00239613e+01 -1.00229820e+01 -1.00215003e+01 -1.00194259e+01
 -1.00190795e+01 -1.00170719e+01 -1.00164320e+01 -1.00148622e+01
 -1.00139304e+01 -1.00115063e+01 -1.00111490e+01 -1.00104165e+01
 -1.00088409e+01 -1.00087755e+01 -1.00057180e+01 -1.00047894e+01
 -1.00046423e+01 -1.00014264e+01 -8.48663351e-01 -8.15970253e-01
 -8.05365716e-01 -7.79969584e-01 -7.56952422e-01 -7.39685269e-01
 -7.34926049e-01 -7.07128761e-01 -6.92294090e-01 -6.69720911e-01
 -6.43542688e-01 -6.27088167e-01 -5.94074836e-01 -5.80657791e-01
 -5.75752654e-01 -5.56720027e-01 -5.45932706e-01 -5.32796694e-01
 -4.79562592e-01 -4.74391947e-01 -4.70307153e-01 -4.59590171e-01
 -4.48707135e-01 -4.40599647e-01 -4.24669405e-01 -4.17569644e-01
 -3.99789325e-01 -3.83995376e-01 -3.82358541e-01 -3.71920846e-01
 -3.66055187e-01 -3.58512786e-01 -3.52971764e-01 -3.43248920e-01
 -3.30902964e-01 -3.26869190e-01 -3.18331768e-01 -3.10375425e-01
 -3.03322755e-01 -2.90903434e-01 -2.78212595e-01 -2.73091857e-01
 -2.56742520e-01 -2.44405972e-01 -2.39463248e-01 -2.22437688e-01
 -2.15026905e-01 -1.93055030e-01 -1.78897547e-01 -1.42753853e-01
 -1.00664941e-01 -3.35773887e-02  9.57628492e-03  5.14147618e-02
  7.05890888e-02  9.69475366e-02  1.21970556e-01  1.38733908e-01
  1.57576860e-01  2.09523110e-01  2.41822715e-01  2.57935590e-01
  2.74492538e-01  2.80476475e-01  2.88800761e-01  3.10819803e-01
  3.22507520e-01  3.57839245e-01  3.61543600e-01  3.65925291e-01
  3.86682041e-01  3.94913914e-01  4.03212986e-01  4.10561294e-01
  4.16800494e-01  4.28480282e-01  4.43505637e-01  4.56485564e-01
  4.71896919e-01  4.92409476e-01  5.02789542e-01  5.21494743e-01
  5.27892562e-01  5.38294652e-01  5.55890963e-01  5.74951197e-01
  5.93421397e-01  6.06035588e-01  6.19019189e-01  6.46153473e-01
  6.58457884e-01  6.66932954e-01  6.90633213e-01  7.21464709e-01
  7.39665513e-01  7.64884553e-01  7.77909076e-01  8.02312553e-01
  8.11749894e-01  8.65239893e-01  8.74992916e-01  9.50678024e-01]
nelec by numeric integration = 146.00000228322347
    CPU time for vxc     37.41 sec, wall time     15.56 sec
E1 = -4072.5421949941256  Ecoul = 1881.343067890612  Exc = -124.43369454879368
cycle= 5 E= -835.810506672814  delta_E= -0.00343  |g|= 0.033  |ddm|= 0.21
    CPU time for cycle= 5     37.81 sec, wall time     15.63 sec
  HOMO = -0.1002578893284  LUMO = -0.0321486573822376
  mo_energy =
[-10.03196201 -10.0293714  -10.02286938 -10.02275314 -10.02178399
 -10.02125241 -10.02099191 -10.0180496  -10.01661003 -10.01563738
 -10.01521934 -10.01424209 -10.01038203 -10.00998468 -10.00981801
 -10.00758556 -10.00731401 -10.00696346 -10.00683751 -10.00309043
 -10.00299878 -10.00052677  -0.84777691  -0.81482056  -0.80421489
  -0.77935819  -0.75560979  -0.7388514   -0.73405452  -0.70607949
  -0.69157342  -0.66899526  -0.64255375  -0.62613247  -0.59286672
  -0.58029029  -0.57505355  -0.55548058  -0.54515362  -0.53211154
  -0.47872718  -0.47358471  -0.46950742  -0.45988932  -0.44778733
  -0.43981003  -0.42415271  -0.41641061  -0.39908153  -0.38325119
  -0.38203025  -0.37036974  -0.3654923   -0.35736804  -0.3516199
  -0.34201194  -0.32996197  -0.32584168  -0.31779463  -0.30944805
  -0.30211661  -0.29133993  -0.27716852  -0.27237631  -0.25552412
  -0.24345432  -0.23830748  -0.22140828  -0.21489886  -0.19218032
  -0.17824952  -0.14169672  -0.10025789  -0.03214866   0.01086481
   0.05235323   0.07123369   0.0975142    0.12337874   0.1400267
   0.15800793   0.21055185   0.24276353   0.2582916    0.27518102
   0.28153432   0.28989482   0.31186747   0.32326047   0.35806655
   0.36194049   0.36677176   0.38823588   0.39687085   0.40404235
   0.4115798    0.41813318   0.42995271   0.44434596   0.45726033
   0.47226841   0.49363277   0.5035913    0.52155135   0.52811372
   0.53846619   0.55680357   0.57541254   0.59528411   0.60795842
   0.62123583   0.64668736   0.65919183   0.66892868   0.69109554
   0.72294748   0.74039855   0.76595845   0.77956359   0.80248769
   0.81254304   0.86677203   0.87507281   0.9495268 ]
nelec by numeric integration = 146.0000022724333
    CPU time for vxc     37.61 sec, wall time     15.61 sec
E1 = -4072.477220177164  Ecoul = 1881.2754185701342  Exc = -124.43130933046187
cycle= 6 E= -835.810795957999  delta_E= -0.000289  |g|= 0.0183  |ddm|= 0.0757
    CPU time for cycle= 6     38.05 sec, wall time     15.68 sec
  HOMO = -0.100044246855777  LUMO = -0.0317117553193468
  mo_energy =
[-10.03162979 -10.02796697 -10.02349437 -10.023022   -10.02158373
 -10.01999993 -10.01900834 -10.0186311  -10.01747017 -10.01528098
 -10.01393695 -10.01311303 -10.01063395 -10.0104245  -10.00884033
 -10.00733103 -10.00690851 -10.00597486 -10.00518358 -10.00472733
 -10.00353693  -9.99806168  -0.84769922  -0.81449515  -0.80396084
  -0.77915674  -0.75556698  -0.73823668  -0.73379412  -0.70590441
  -0.69109578  -0.6685051   -0.64231652  -0.62581412  -0.59287156
  -0.57999837  -0.57446521  -0.5556151   -0.54490055  -0.53151922
  -0.47857874  -0.47352982  -0.46924588  -0.4594891   -0.44786087
  -0.43953593  -0.42385872  -0.41611828  -0.39892045  -0.3831275
  -0.38200719  -0.37001871  -0.3651349   -0.35742009  -0.35147221
  -0.3421199   -0.32961655  -0.3255451   -0.31748243  -0.30925756
  -0.30185842  -0.29064891  -0.27719195  -0.27236972  -0.25540232
  -0.24295075  -0.23787354  -0.22128461  -0.21437834  -0.19180822
  -0.17774499  -0.14152945  -0.10004425  -0.03171176   0.01109026
   0.05276323   0.07177364   0.09798999   0.12342616   0.14032004
   0.15828287   0.21079272   0.24308871   0.25868893   0.27516308
   0.28176022   0.28990943   0.31193566   0.32364699   0.35893084
   0.362409     0.36705177   0.38814763   0.39642636   0.40449394
   0.41214576   0.41790765   0.42983633   0.44447856   0.45723166
   0.47324924   0.49351349   0.50357763   0.5219175    0.52869323
   0.53971732   0.55708641   0.57606677   0.59529015   0.60789617
   0.62098849   0.64732398   0.65966385   0.66856179   0.69221655
   0.72283502   0.74063166   0.76628323   0.77996899   0.80278187
   0.81220794   0.86728086   0.87533373   0.94987109]
nelec by numeric integration = 146.00000227413474
    CPU time for vxc     38.37 sec, wall time     15.81 sec
E1 = -4072.47155702173  Ecoul = 1881.2690688694063  Exc = -124.43073637478754
cycle= 7 E= -835.810909547619  delta_E= -0.000114  |g|= 0.00555  |ddm|= 0.0332
    CPU time for cycle= 7     38.93 sec, wall time     15.89 sec
  HOMO = -0.100017831999589  LUMO = -0.0316392653441075
  mo_energy =
[-10.03168216 -10.02754276 -10.02326883 -10.02297496 -10.02146213
 -10.0197437  -10.0186849  -10.01862668 -10.01700326 -10.01541277
 -10.01392221 -10.0134953  -10.01017894 -10.00963782 -10.00920623
 -10.00724122 -10.00682188 -10.00599583 -10.00595641 -10.00455436
 -10.00353333  -9.99845423  -0.84770993  -0.81439618  -0.80388057
  -0.77913529  -0.75551516  -0.73820925  -0.73372166  -0.7058265
  -0.6911192   -0.66849247  -0.64230776  -0.62573043  -0.5928148
  -0.57997939  -0.57445272  -0.55561197  -0.54485346  -0.53151362
  -0.47854894  -0.47347199  -0.4692321   -0.45943936  -0.44786813
  -0.43947239  -0.42378522  -0.41609753  -0.39890842  -0.38309731
  -0.38195796  -0.36994644  -0.36510899  -0.35741729  -0.3514038
  -0.34205845  -0.32956857  -0.32549283  -0.3174341   -0.30917825
  -0.30175643  -0.29057738  -0.27719806  -0.27235591  -0.2553678
  -0.24288761  -0.23786992  -0.22125306  -0.2143287   -0.19170609
  -0.17774873  -0.14147158  -0.10001783  -0.03163927   0.01115257
   0.05276338   0.07187544   0.09804786   0.12345576   0.14035356
   0.15834512   0.21084658   0.24310121   0.25866323   0.27524483
   0.2818338    0.28985199   0.31198767   0.32375556   0.35891996
   0.36248982   0.36708357   0.38821825   0.39654508   0.4045628
   0.41226678   0.41796934   0.42984203   0.44462021   0.45732547
   0.47320474   0.49366078   0.50368426   0.52192135   0.52873649
   0.5396957    0.55693775   0.57615279   0.59533639   0.60793847
   0.62096737   0.64738002   0.65973059   0.66866341   0.69219973
   0.72282063   0.74070404   0.76629688   0.77998825   0.80280437
   0.81229075   0.86731712   0.87526137   0.9499177 ]
nelec by numeric integration = 146.000002274065
    CPU time for vxc     38.39 sec, wall time     15.77 sec
E1 = -4072.462424832627  Ecoul = 1881.2598532563816  Exc = -124.43066250126083
cycle= 8 E= -835.810919098014  delta_E= -9.55e-06  |g|= 0.0023  |ddm|= 0.0083
    CPU time for cycle= 8     38.85 sec, wall time     15.85 sec
  HOMO = -0.100038947994216  LUMO = -0.0316320647402344
  mo_energy =
[-10.03168994 -10.02752031 -10.02314317 -10.02300176 -10.02148563
 -10.01987018 -10.01872159 -10.01861369 -10.01690861 -10.01531124
 -10.01393227 -10.01355272 -10.01015032 -10.0098831  -10.00934296
 -10.00735333 -10.00677596 -10.00604081 -10.00560481 -10.00453068
 -10.00348608  -9.99864696  -0.84771735  -0.81440323  -0.80388929
  -0.77915234  -0.75553495  -0.73822579  -0.73371764  -0.70584222
  -0.69109958  -0.66850403  -0.64232762  -0.62571688  -0.5928009
  -0.57997859  -0.5744749   -0.55561017  -0.54486122  -0.53153278
  -0.47854802  -0.47347675  -0.46924642  -0.45944538  -0.44785643
  -0.43947328  -0.42380822  -0.41610995  -0.39892192  -0.38309659
  -0.38195371  -0.36994458  -0.36511771  -0.35742265  -0.35141119
  -0.34205374  -0.32956967  -0.32549022  -0.31744027  -0.30918474
  -0.30175263  -0.29059638  -0.27718984  -0.27236016  -0.25537469
  -0.2428933   -0.23786773  -0.22124057  -0.21432648  -0.19171984
  -0.17772983  -0.14146974  -0.10003895  -0.03163206   0.01117703
   0.0527709    0.0718535    0.09805271   0.12344664   0.14034062
   0.15834041   0.2108382    0.24310827   0.25868474   0.27524941
   0.28184283   0.28989287   0.31198718   0.32375497   0.35889433
   0.3625022    0.36710471   0.38823102   0.39651826   0.40455406
   0.4122581    0.41799081   0.42987351   0.44463192   0.45731506
   0.47316538   0.49363868   0.50368268   0.52192364   0.52872831
   0.53963956   0.55700341   0.57613204   0.59534085   0.60791687
   0.62097696   0.64734241   0.65969509   0.66863878   0.69215518
   0.72281214   0.74068532   0.76626733   0.77996955   0.80278923
   0.81230626   0.86731539   0.87525238   0.94991604]
nelec by numeric integration = 146.00000227401637
    CPU time for vxc     39.18 sec, wall time     16.47 sec
E1 = -4072.4620703989285  Ecoul = 1881.2595302218663  Exc = -124.43069528664249
cycle= 9 E= -835.810920484212  delta_E= -1.39e-06  |g|= 0.00128  |ddm|= 0.00278
    CPU time for cycle= 9     39.62 sec, wall time     16.54 sec
  HOMO = -0.100051776520259  LUMO = -0.0316273013856469
  mo_energy =
[-10.03165479 -10.02762524 -10.02319908 -10.02299101 -10.02149575
 -10.01985091 -10.01881486 -10.01861273 -10.01681591 -10.01533402
 -10.01395254 -10.01347896 -10.01015848 -10.00986406 -10.00937829
 -10.00725514 -10.00699116 -10.00604128 -10.00569293 -10.00455073
 -10.00351858  -9.99863565  -0.84771157  -0.81442561  -0.80390008
  -0.77917084  -0.75552295  -0.73825968  -0.73374362  -0.70583581
  -0.69111771  -0.66852577  -0.64235233  -0.62570165  -0.59281108
  -0.57998613  -0.57450296  -0.55561338  -0.54487338  -0.53153552
  -0.47855497  -0.47348715  -0.46924818  -0.45945705  -0.44786731
  -0.43948635  -0.42381256  -0.4161137   -0.3989289   -0.38311452
  -0.38195585  -0.36993256  -0.36511589  -0.35742222  -0.35141533
  -0.34207379  -0.32958917  -0.32550753  -0.31745693  -0.30919288
  -0.30175646  -0.29060825  -0.27719998  -0.27236429  -0.25537009
  -0.24290758  -0.23786654  -0.2212484   -0.21437112  -0.19171772
  -0.17775038  -0.14148357  -0.10005178  -0.0316273    0.01116357
   0.05275262   0.07184693   0.09801213   0.12345136   0.14033951
   0.15833863   0.21082395   0.24310285   0.2586768    0.27524127
   0.28183098   0.28988084   0.3119821    0.32373776   0.35888611
   0.3625091    0.36710327   0.38824684   0.39651981   0.40452919
   0.41224801   0.41799085   0.42986373   0.44464567   0.45730983
   0.47315397   0.49363847   0.50368344   0.5219144    0.52868909
   0.53961872   0.55698965   0.57612446   0.59532575   0.60791439
   0.62096318   0.64732854   0.65969324   0.66862894   0.6921247
   0.72280786   0.7406747    0.76626447   0.77995835   0.80280093
   0.8122987    0.86730014   0.87527017   0.94980112]
nelec by numeric integration = 146.00000227375733
    CPU time for vxc     38.24 sec, wall time     15.90 sec
E1 = -4072.4627025882332  Ecoul = 1881.26017995176  Exc = -124.43071344061732
cycle= 10 E= -835.810921097598  delta_E= -6.13e-07  |g|= 0.000417  |ddm|= 0.00176
    CPU time for cycle= 10     38.82 sec, wall time     15.98 sec
  HOMO = -0.100047050616545  LUMO = -0.0316199477825286
  mo_energy =
[-10.03166228 -10.02756328 -10.02324068 -10.02293378 -10.0215011
 -10.01973676 -10.01878197 -10.01864065 -10.01674858 -10.01536073
 -10.01401747 -10.01347332 -10.01020966 -10.00989278 -10.00931903
 -10.0072324  -10.00701809 -10.00606531 -10.00568935 -10.00458603
 -10.00353862  -9.99870792  -0.84770875  -0.81441981  -0.80390844
  -0.77916576  -0.75551467  -0.73827081  -0.73373933  -0.7058267
  -0.69111873  -0.66853386  -0.64236159  -0.62568437  -0.59280685
  -0.57996898  -0.57450972  -0.5556155   -0.54486625  -0.53154132
  -0.47855435  -0.47348455  -0.46924981  -0.45945663  -0.44786539
  -0.43948015  -0.42381849  -0.41611392  -0.39892234  -0.38310919
  -0.38196479  -0.36992629  -0.36511212  -0.35741905  -0.35140996
  -0.34208493  -0.32959095  -0.32550053  -0.31745668  -0.30919631
  -0.30174533  -0.29059038  -0.27719914  -0.27236121  -0.25536352
  -0.24290453  -0.2378737   -0.22125165  -0.21437444  -0.19170309
  -0.17775182  -0.14148624  -0.10004705  -0.03161995   0.01115894
   0.05275201   0.07186248   0.09800494   0.12344819   0.14034911
   0.15833174   0.21082443   0.24310193   0.2586863    0.27523837
   0.28183797   0.28987604   0.31198562   0.32375754   0.35887615
   0.3625318    0.36711804   0.38825846   0.39651046   0.40453466
   0.41226776   0.41798781   0.42986126   0.44466614   0.45730714
   0.47313235   0.49364753   0.50369226   0.52191185   0.52868857
   0.53960298   0.55698726   0.57613924   0.59533915   0.60792516
   0.62096393   0.6473224    0.65968956   0.6686215    0.69210334
   0.72281715   0.74068184   0.7662762    0.77995708   0.80280754
   0.81227255   0.86729474   0.87527091   0.94979622]
nelec by numeric integration = 146.00000227372973
    CPU time for vxc     38.05 sec, wall time     15.83 sec
E1 = -4072.461239527155  Ecoul = 1881.258736292184  Exc = -124.43073289057098
cycle= 11 E= -835.810921146049  delta_E= -4.85e-08  |g|= 0.000253  |ddm|= 0.00101
    CPU time for cycle= 11     38.54 sec, wall time     15.91 sec
  HOMO = -0.100043896077087  LUMO = -0.0316153879378078
  mo_energy =
[-10.03164942 -10.02759877 -10.02321182 -10.02295081 -10.02148593
 -10.01979259 -10.01879717 -10.01861923 -10.01675268 -10.01533271
 -10.01397529 -10.01346497 -10.01017402 -10.00987622 -10.00935612
 -10.0072133  -10.00701411 -10.00605288 -10.00568227 -10.00455014
 -10.00350816  -9.99868437  -0.84770253  -0.81441717  -0.80389749
  -0.779165    -0.75551157  -0.73826144  -0.73373701  -0.70582411
  -0.69111312  -0.66852735  -0.64235516  -0.62568273  -0.59280443
  -0.57997303  -0.57450368  -0.5556096   -0.54486484  -0.53153436
  -0.47855125  -0.47348252  -0.46924427  -0.45945231  -0.4478634
  -0.43947893  -0.42381087  -0.41611007  -0.39892163  -0.3831094
  -0.3819563   -0.36992136  -0.36510894  -0.35741507  -0.35140944
  -0.34207658  -0.32958561  -0.32549891  -0.31745219  -0.30918918
  -0.30174401  -0.29059443  -0.27719595  -0.27235838  -0.25536013
  -0.24290044  -0.23786301  -0.22124447  -0.21436967  -0.19170298
  -0.17774616  -0.14148038  -0.1000439   -0.03161539   0.01116599
   0.05275701   0.07186061   0.09801242   0.12345698   0.14035045
   0.15833992   0.21082881   0.24310881   0.25868663   0.27524271
   0.28184117   0.2898828    0.31198946   0.32375219   0.3588853
   0.36252681   0.36711608   0.38825993   0.39651996   0.40453556
   0.41226461   0.41799297   0.42986702   0.44466591   0.45731197
   0.4731449    0.49364701   0.50369221   0.5219179    0.52869167
   0.53961152   0.55699413   0.57613724   0.59533725   0.60792426
   0.62096736   0.64733      0.65969708   0.66863095   0.69211579
   0.72281816   0.7406839    0.76627627   0.77996446   0.80281309
   0.8122912    0.86730762   0.87527939   0.94979101]
nelec by numeric integration = 146.0000022737123
    CPU time for vxc     37.82 sec, wall time     15.74 sec
E1 = -4072.4614511287077  Ecoul = 1881.2589256235885  Exc = -124.43071064386666
cycle= 12 E= -835.810921169493  delta_E= -2.34e-08  |g|= 2.62e-05  |ddm|= 0.000384
    CPU time for cycle= 12     38.20 sec, wall time     15.80 sec
  HOMO = -0.100042094427829  LUMO = -0.0316137549513278
  mo_energy =
[-10.03164484 -10.02759296 -10.02320559 -10.02295275 -10.02149455
 -10.01978815 -10.01879864 -10.01861699 -10.01674687 -10.01533613
 -10.0139749  -10.01345986 -10.01017044 -10.00987451 -10.00935266
 -10.00721425 -10.00700698 -10.00605311 -10.00567992 -10.00455609
 -10.00351291  -9.99867291  -0.84770081  -0.81441639  -0.80389718
  -0.77916282  -0.75551029  -0.73826105  -0.73373544  -0.70582372
  -0.6911124   -0.66852591  -0.6423539   -0.62568172  -0.59280374
  -0.57997147  -0.57450321  -0.55560877  -0.54486389  -0.53153389
  -0.47855049  -0.47348137  -0.4692434   -0.45945126  -0.4478626
  -0.4394786   -0.42381035  -0.41610893  -0.39891992  -0.38310796
  -0.38195522  -0.36992103  -0.36510764  -0.35741365  -0.35140777
  -0.34207634  -0.32958502  -0.32549808  -0.31745105  -0.30918835
  -0.30174369  -0.29059241  -0.27719466  -0.27235673  -0.25535877
  -0.24289996  -0.2378626   -0.22124397  -0.21436856  -0.191702
  -0.17774533  -0.14147874  -0.10004209  -0.03161375   0.01116738
   0.05275774   0.07186177   0.09801311   0.12345756   0.14035228
   0.15834178   0.21082951   0.24310898   0.25868781   0.27524321
   0.2818411    0.28988307   0.31199072   0.32375438   0.35888578
   0.36252883   0.36711729   0.38826108   0.39651871   0.40453684
   0.41226606   0.41799387   0.42986827   0.4446676    0.45731293
   0.47314613   0.4936481    0.50369376   0.52191904   0.52869244
   0.53961276   0.55699479   0.57613861   0.59533831   0.60792548
   0.62096762   0.64733041   0.65969811   0.66863071   0.6921171
   0.7228201    0.74068464   0.76627763   0.77996425   0.80281439
   0.81229277   0.86730559   0.87528147   0.94979497]
nelec by numeric integration = 146.00000227370666
    CPU time for vxc     37.40 sec, wall time     15.58 sec
E1 = -4072.4613215446507  Ecoul = 1881.2587935424383  Exc = -124.43070814681734
cycle= 13 E= -835.810921169537  delta_E= -4.37e-11  |g|= 2.35e-05  |ddm|= 7.03e-05
    CPU time for cycle= 13     37.97 sec, wall time     15.67 sec
  HOMO = -0.100043745908877  LUMO = -0.0316153496394544
  mo_energy =
[-10.03164757 -10.02759624 -10.02320961 -10.02295314 -10.02149155
 -10.0197906  -10.01879916 -10.01861843 -10.01675127 -10.01533495
 -10.01397569 -10.01346269 -10.01017264 -10.0098749  -10.00935653
 -10.00721608 -10.00701226 -10.00605347 -10.00568072 -10.0045543
 -10.00351183  -9.99867924  -0.84770233  -0.8144175   -0.80389795
  -0.77916452  -0.75551161  -0.73826202  -0.73373701  -0.70582444
  -0.69111318  -0.6685271   -0.64235507  -0.62568286  -0.59280438
  -0.57997275  -0.5745041   -0.55560966  -0.54486498  -0.53153464
  -0.47855114  -0.47348236  -0.4692443   -0.45945227  -0.44786334
  -0.43947934  -0.423811    -0.41610999  -0.39892136  -0.38310919
  -0.38195588  -0.36992183  -0.36510873  -0.35741491  -0.35140901
  -0.34207676  -0.32958586  -0.32549911  -0.31745221  -0.30918926
  -0.3017444   -0.29059408  -0.27719571  -0.27235801  -0.25536003
  -0.24290089  -0.23786332  -0.22124462  -0.21436984  -0.19170308
  -0.17774615  -0.1414799   -0.10004375  -0.03161535   0.01116641
   0.05275686   0.0718605    0.09801199   0.12345665   0.14035059
   0.15834054   0.21082865   0.24310835   0.25868678   0.27524273
   0.28184052   0.28988272   0.31198956   0.32375263   0.35888498
   0.36252734   0.36711627   0.38826001   0.39651903   0.40453548
   0.41226461   0.41799326   0.42986734   0.44466608   0.45731229
   0.47314502   0.49364726   0.50369275   0.52191808   0.52869137
   0.53961147   0.55699426   0.57613723   0.59533703   0.60792418
   0.62096705   0.64732959   0.65969704   0.66863024   0.69211571
   0.72281836   0.74068369   0.7662761    0.77996354   0.80281302
   0.81229179   0.8673057    0.87527981   0.94979205]
nelec by numeric integration = 146.00000227370876
    CPU time for vxc     38.26 sec, wall time     15.73 sec
E1 = -4072.461437253677  Ecoul = 1881.2589118476417  Exc = -124.4307107432007
cycle= 14 E= -835.810921169743  delta_E= -2.06e-10  |g|= 2.05e-06  |ddm|= 3.59e-05
    CPU time for cycle= 14     38.72 sec, wall time     15.80 sec
  HOMO = -0.100043723029302  LUMO = -0.0316152844662797
  mo_energy =
[-10.03164776 -10.02759606 -10.02320934 -10.02295317 -10.0214914
 -10.01979077 -10.01879822 -10.01861866 -10.01675092 -10.01533536
 -10.01397575 -10.01346337 -10.01017268 -10.00987555 -10.00935663
 -10.00721544 -10.00701201 -10.00605435 -10.00568099 -10.00455453
 -10.00351221  -9.99867869  -0.84770245  -0.81441749  -0.803898
  -0.7791646   -0.75551162  -0.73826195  -0.73373694  -0.70582452
  -0.69111326  -0.6685271   -0.6423551   -0.62568286  -0.59280449
  -0.57997273  -0.57450404  -0.55560976  -0.54486499  -0.53153457
  -0.4785512   -0.4734824   -0.46924437  -0.45945224  -0.44786338
  -0.43947929  -0.42381108  -0.41610996  -0.39892136  -0.38310921
  -0.381956    -0.36992177  -0.36510876  -0.35741502  -0.35140902
  -0.34207685  -0.32958586  -0.3254991   -0.31745221  -0.3091893
  -0.30174444  -0.290594    -0.27719582  -0.27235811  -0.25536005
  -0.24290079  -0.23786334  -0.22124469  -0.21436973  -0.1917031
  -0.17774621  -0.14148     -0.10004372  -0.03161528   0.01116628
   0.05275679   0.07186053   0.09801206   0.12345657   0.1403506
   0.15834045   0.2108286    0.24310832   0.25868675   0.27524269
   0.28184052   0.28988256   0.31198947   0.32375267   0.35888506
   0.3625274    0.36711624   0.38826001   0.39651878   0.40453557
   0.41226465   0.41799323   0.42986726   0.44466609   0.45731217
   0.47314514   0.49364715   0.50369267   0.52191804   0.52869144
   0.5396117    0.55699411   0.57613732   0.59533705   0.60792417
   0.62096689   0.64732963   0.65969698   0.66863009   0.69211586
   0.72281833   0.74068362   0.76627612   0.7799635    0.80281301
   0.81229163   0.8673056    0.87527963   0.94979225]
nelec by numeric integration = 146.0000022737095
    CPU time for vxc     38.87 sec, wall time     15.94 sec
E1 = -4072.4614386640196  Ecoul = 1881.2589134210027  Exc = -124.4307109062108
cycle= 15 E= -835.810921169735  delta_E= 8.19e-12  |g|= 2.48e-06  |ddm|= 6.44e-06
    CPU time for cycle= 15     39.33 sec, wall time     16.02 sec
  HOMO = -0.100043707096586  LUMO = -0.0316152638991838
  mo_energy =
[-10.03164743 -10.02759643 -10.02320947 -10.02295285 -10.02149137
 -10.01979064 -10.01879974 -10.01861854 -10.01675086 -10.01533478
 -10.01397577 -10.0134626  -10.01017277 -10.00987493 -10.00935594
 -10.00721623 -10.00701227 -10.00605288 -10.00568097 -10.0045541
 -10.00351148  -9.99867973  -0.8477022   -0.81441747  -0.80389794
  -0.77916446  -0.75551151  -0.73826204  -0.73373696  -0.70582437
  -0.69111319  -0.66852713  -0.64235505  -0.6256828   -0.59280436
  -0.57997271  -0.57450412  -0.55560955  -0.54486493  -0.53153466
  -0.47855113  -0.47348231  -0.46924425  -0.45945227  -0.4478633
  -0.43947929  -0.42381099  -0.41610997  -0.39892129  -0.38310913
  -0.3819559   -0.36992176  -0.3651087   -0.35741479  -0.35140898
  -0.34207675  -0.32958586  -0.32549908  -0.31745219  -0.30918925
  -0.30174433  -0.29059409  -0.27719563  -0.27235793  -0.25535995
  -0.24290088  -0.23786329  -0.22124459  -0.21436988  -0.19170303
  -0.17774617  -0.14147987  -0.10004371  -0.03161526   0.01116641
   0.05275687   0.07186052   0.09801197   0.12345674   0.14035067
   0.15834051   0.21082868   0.2431084    0.25868682   0.27524273
   0.28184056   0.28988276   0.31198965   0.32375266   0.35888494
   0.36252737   0.36711632   0.38826013   0.39651915   0.40453549
   0.41226464   0.41799327   0.42986737   0.4446662    0.45731228
   0.47314494   0.49364732   0.50369278   0.52191808   0.52869134
   0.53961131   0.55699426   0.57613724   0.59533715   0.60792429
   0.62096716   0.64732955   0.65969705   0.66863035   0.6921156
   0.72281851   0.74068373   0.7662762    0.77996363   0.80281309
   0.81229171   0.86730582   0.87527994   0.94979199]
nelec by numeric integration = 146.00000227370813
    CPU time for vxc     37.68 sec, wall time     15.60 sec
E1 = -4072.461431946596  Ecoul = 1881.2589064699332  Exc = -124.43071067256848
Extra cycle  E= -835.810921169739  delta_E= -3.64e-12  |g|= 4.87e-06  |ddm|= 1.15e-05
    CPU time for scf_cycle    663.10 sec, wall time    271.31 sec
    CPU time for SCF    663.10 sec, wall time    271.31 sec
converged SCF energy = -835.810921169739
nelec by numeric integration = 146.00000227370813
    CPU time for vxc     37.67 sec, wall time     15.61 sec
 ** Mulliken pop  **
pop of  0 C 1s            1.99107
pop of  0 C 2s            1.18828
pop of  0 C 2px           0.94881
pop of  0 C 2py           0.93132
pop of  0 C 2pz           0.91739
pop of  1 C 1s            1.99093
pop of  1 C 2s            1.14448
pop of  1 C 2px           0.99594
pop of  1 C 2py           0.95546
pop of  1 C 2pz           0.93717
pop of  2 C 1s            1.99087
pop of  2 C 2s            1.16623
pop of  2 C 2px           0.99894
pop of  2 C 2py           0.93425
pop of  2 C 2pz           0.98629
pop of  3 C 1s            1.99138
pop of  3 C 2s            1.12607
pop of  3 C 2px           1.06705
pop of  3 C 2py           0.94766
pop of  3 C 2pz           1.04672
pop of  4 C 1s            1.99110
pop of  4 C 2s            1.15344
pop of  4 C 2px           0.98467
pop of  4 C 2py           0.95826
pop of  4 C 2pz           0.98968
pop of  5 C 1s            1.99140
pop of  5 C 2s            1.23823
pop of  5 C 2px           0.94654
pop of  5 C 2py           0.91733
pop of  5 C 2pz           0.94894
pop of  6 C 1s            1.99110
pop of  6 C 2s            1.13650
pop of  6 C 2px           1.01879
pop of  6 C 2py           0.97903
pop of  6 C 2pz           0.99257
pop of  7 C 1s            1.99058
pop of  7 C 2s            1.13247
pop of  7 C 2px           1.00356
pop of  7 C 2py           0.98572
pop of  7 C 2pz           0.97409
pop of  8 C 1s            1.99085
pop of  8 C 2s            1.15700
pop of  8 C 2px           0.96503
pop of  8 C 2py           0.93820
pop of  8 C 2pz           0.93060
pop of  9 C 1s            1.99108
pop of  9 C 2s            1.19242
pop of  9 C 2px           0.97778
pop of  9 C 2py           0.91955
pop of  9 C 2pz           0.91553
pop of  10 C 1s           1.99047
pop of  10 C 2s           1.10233
pop of  10 C 2px          1.02634
pop of  10 C 2py          0.97104
pop of  10 C 2pz          1.03071
pop of  11 C 1s           1.99096
pop of  11 C 2s           1.14498
pop of  11 C 2px          1.00019
pop of  11 C 2py          0.94666
pop of  11 C 2pz          1.02622
pop of  12 C 1s           1.99076
pop of  12 C 2s           1.14000
pop of  12 C 2px          0.99709
pop of  12 C 2py          0.96056
pop of  12 C 2pz          0.90499
pop of  13 C 1s           1.99050
pop of  13 C 2s           1.10934
pop of  13 C 2px          0.98024
pop of  13 C 2py          0.97138
pop of  13 C 2pz          0.96511
pop of  14 C 1s           1.99113
pop of  14 C 2s           1.19300
pop of  14 C 2px          0.97738
pop of  14 C 2py          0.93289
pop of  14 C 2pz          0.95695
pop of  15 C 1s           1.99089
pop of  15 C 2s           1.13495
pop of  15 C 2px          1.00430
pop of  15 C 2py          0.95248
pop of  15 C 2pz          0.98225
pop of  16 C 1s           1.99070
pop of  16 C 2s           1.14432
pop of  16 C 2px          0.98375
pop of  16 C 2py          0.95034
pop of  16 C 2pz          0.94989
pop of  17 C 1s           1.99109
pop of  17 C 2s           1.16187
pop of  17 C 2px          0.98156
pop of  17 C 2py          0.93061
pop of  17 C 2pz          0.93377
pop of  18 C 1s           1.99112
pop of  18 C 2s           1.19835
pop of  18 C 2px          0.98353
pop of  18 C 2py          0.92835
pop of  18 C 2pz          0.96938
pop of  19 C 1s           1.99165
pop of  19 C 2s           1.24307
pop of  19 C 2px          0.93528
pop of  19 C 2py          0.93361
pop of  19 C 2pz          0.96763
pop of  20 C 1s           1.99085
pop of  20 C 2s           1.14434
pop of  20 C 2px          0.97435
pop of  20 C 2py          0.99005
pop of  20 C 2pz          0.98052
pop of  21 C 1s           1.99116
pop of  21 C 2s           1.17049
pop of  21 C 2px          0.99273
pop of  21 C 2py          0.96864
pop of  21 C 2pz          0.95037
pop of  22 H 1s           0.92389
pop of  23 H 1s           0.87780
pop of  24 H 1s           0.92400
pop of  25 H 1s           0.92978
pop of  26 H 1s           0.88776
pop of  27 H 1s           0.91357
pop of  28 H 1s           0.89625
pop of  29 H 1s           0.88528
pop of  30 H 1s           0.93888
pop of  31 H 1s           0.91802
pop of  32 H 1s           0.90299
pop of  33 H 1s           0.90904
pop of  34 H 1s           0.93080
pop of  35 H 1s           0.93415
 ** Mulliken atomic charges  **
charge of    0C =      0.02313
charge of    1C =     -0.02398
charge of    2C =     -0.07658
charge of    3C =     -0.17889
charge of    4C =     -0.07714
charge of    5C =     -0.04244
charge of    6C =     -0.11798
charge of    7C =     -0.08642
charge of    8C =      0.01832
charge of    9C =      0.00364
charge of   10C =     -0.12089
charge of   11C =     -0.10900
charge of   12C =      0.00661
charge of   13C =     -0.01657
charge of   14C =     -0.05135
charge of   15C =     -0.06488
charge of   16C =     -0.01899
charge of   17C =      0.00110
charge of   18C =     -0.07073
charge of   19C =     -0.07124
charge of   20C =     -0.08011
charge of   21C =     -0.07339
charge of   22H =      0.07611
charge of   23H =      0.12220
charge of   24H =      0.07600
charge of   25H =      0.07022
charge of   26H =      0.11224
charge of   27H =      0.08643
charge of   28H =      0.10375
charge of   29H =      0.11472
charge of   30H =      0.06112
charge of   31H =      0.08198
charge of   32H =      0.09701
charge of   33H =      0.09096
charge of   34H =      0.06920
charge of   35H =      0.06585
Dipole moment(X, Y, Z, Debye):  0.20101, -0.73035, -0.98795
nelec by numeric integration = 146.00000227370813
    CPU time for vxc     37.63 sec, wall time     15.60 sec
E1 = -4072.461431946596  Ecoul = 1881.2589064699334  Exc = -124.43071067256848
nelec by numeric integration = 146.00000227370813
    CPU time for vxc     38.00 sec, wall time     15.71 sec
E1 = -4072.461431946596  Ecoul = 1881.2589064699334  Exc = -124.43071067256848
