4
Lattice="6.662612 0.0 0.0 0.0 7.28 0.0 0.0 0.0 7.693322" Properties=species:S:1:pos:R:3 config_type=sp dft_energy=-639.76019033 gap_energy=-635.13334979 gap_virial="10.4186219 2.90014168 -9.29156704 2.90014168 26.4926741 -1.10133404 -9.29156704 -1.10133404 10.40365306" cutoff=5.5 nneightol=1.2 pbc="T T T"
Si       0.47978802       0.22455888       7.45191325
Si       6.35092835       1.64423896       0.56775178
Si       0.22389041       3.10087960       7.26480396
Si       6.27062389       5.99545128       0.10216732
144
Lattice="26.818337 2.440734 0.740494 12.983191 10.620511 1.539335 -0.481081 -0.527692 11.342866" Properties=species:S:1:pos:R:3 time=255.0 i_step=170 config_type=screw_disloc iprint=2 reuse=NULL task=SinglePoint calculate_stress=T data_distribution=GVECTOR opt_strategy=memory xc_functional=PW91 cut_off_energy="250.0000000 eV" fine_grid_scale=4.0 finite_basis_corr=automatic spin_polarized=F elec_energy_tol="0.0000001 ev" max_scf_cycles=250 fix_occupancy=F smearing_width="0.0500000 eV" num_dump_cycles=0 mixing_scheme=pulay mix_history_length=20 kpoints_mp_grid="5 8 6" castep_file_name=traj144_10.xyz@17/filepot/filepot.castep dft_energy=-23468.111092 cutoff=6.0 nneightol=1.2 pbc="T T T"
Si      26.88952835       8.18018400       9.05198320
Si      27.16756812       8.75326132       1.85194536
Si      30.13402193       8.21754017      11.23012207
Si      30.56632617       8.95226674       3.87924241
Si      33.68818091       8.65760475       9.23036942
Si      33.46673600       8.45528374      12.89155569
Si      10.01870414       6.75476278      10.30506601
Si       9.87422362       6.70654205       2.82606479
Si      13.25057933       6.75950565       8.39781926
Si      13.02038235       6.76778098      12.04114165
Si      16.51541054       7.22831071      10.02221147
Si      16.86188138       7.63563936       2.57561857
Si      20.04299319       7.82382002       8.86659275
Si      19.89439757       7.49783327      12.49057663
Si      23.51498824       7.85840112      10.84288368
Si      23.49528237       8.02130639       3.19734562
Si      27.85998670       8.81421404      11.26798489
Si      28.32490030       9.56034956       3.70833242
Si      31.38802305       9.43437659       9.62364965
Si      31.61928980       9.48211014       1.81983786
Si      34.45853471       9.52477427      11.33105519
Si      34.46128221      10.09828950       3.75899937
Si      10.66589852       7.54347919       8.25686177
Si      10.70857070       7.16098392      12.48592573
Si      14.15677086       7.82404587      10.19547018
Si      14.64847854       7.99449716       2.92206507
Si      17.63720153       8.32321822       8.32149427
Si      17.46721726       8.10667814      12.20300350
Si      21.30756303       8.39445506      10.82917039
Si      21.17986993       8.60840082       3.24712999
Si      24.55787491       8.68155574       9.08125824
Si      24.48586167       8.32504602      12.80981179
Si      27.37579726      11.14827928      11.35244119
Si      28.31110921      11.84138516       3.81333241
Si      18.15582020       1.31800405       8.36160921
Si      31.30245222      11.85627005       2.08946377
Si      34.25823531      11.83363831      11.48893585
Si      34.69604606      12.50181072       4.16392097
Si      37.96171419      12.34008794       2.30563915
Si      37.92683776      12.38158464       4.81960715
Si      14.36795249      10.33672449       2.59642129
Si      14.12794547      10.26436647       6.23953218
Si      16.97436008      10.44998780      12.08472205
Si      17.38662793      10.73804066       4.18981274
Si      21.01614511      10.78191910      11.33505227
Si      21.10922395      11.02780549       3.47593768
Si      24.32511332      10.90344964       9.34664805
Si      24.85180026      11.07988701       1.99418591
Si      15.73320630       1.67472378       8.18515122
Si      15.74752075       1.60176380      11.47911527
Si      19.02599009       2.12720015      10.29618887
Si      19.29127559       2.23637695       2.67797413
Si      22.97549733       2.45708102       9.00151359
Si      22.37649316       1.85245719      11.96096117
Si      26.10410427       2.53896802      11.45698973
Si      26.96298831       3.00991993       3.60604561
Si       2.93485165       0.42515718       8.52597139
Si       3.19143973       1.09921387       0.88659709
Si       6.06418886       0.86916054      10.87396078
Si       6.13504404       1.46256567       1.93562133
Si       9.14735755       1.22294707       8.06665069
Si       9.69682696       1.37353234       0.43887614
Si      12.22711322       1.02284866       9.85601517
Si      12.99041119       1.71710111       2.11717249
Si      15.53053651       4.05917543       8.12465257
Si      15.46018771       3.89635602      11.59635153
Si      19.01460100       4.42666132      10.28530173
Si      19.15352496       4.62793547       2.82719026
Si      22.46129195       4.78610805       8.78630616
Si      22.51069025       4.27593182      12.24769403
Si      25.92986322       4.88017599      10.99282595
Si      26.42064593       5.19629686       3.39896510
Si      29.45064464       5.24497755       9.34451126
Si      29.74766130       5.72197064       1.73338218
Si       5.94568273       3.15315074      10.41029041
Si       6.37352888       3.49520070       2.92245275
Si       9.19472771       3.44743733       8.55090507
Si       9.29417764       3.06471879      11.93734032
Si      12.26597531       3.34010284       9.81620266
Si      12.92476783       4.07019500       2.25303091
Si      13.22305376       4.37498485       7.92118648
Si      13.18271792       4.59818161      11.64189064
Si      16.68676991       4.97880755      10.12715837
Si      16.95530062       5.25969074       2.42335474
Si      20.09965849       5.58236118       8.57137494
Si      20.52980670       5.55657375       1.05704483
Si      23.79562154       5.55530429      10.71966832
Si      24.07860038       5.64634126       2.99779427
Si      27.23671174       5.87537762       9.45201579
Si      27.33666211       6.38593065       1.60904430
Si      30.48732424       5.80614000      11.34457348
Si      30.84488966       6.58149481       3.83077750
Si       7.05646627       3.93141647       8.56117436
Si       7.60052147       4.25908726       0.82643473
Si      10.26790166       4.47822234      10.29587287
Si      10.63998498       4.37523836       2.59873364
Si      26.91175133       8.21928811       5.22908322
Si      30.11814919       8.81897981       7.68569737
Si      33.68215718       9.15254714       5.66515490
Si      10.25706304       6.42662118       6.44298269
Si      13.40237434       7.33744142       4.62441847
Si      16.55699895       7.38295622       6.48526106
Si      20.03036684       7.63172749       5.03379463
Si      23.69805473       7.90745572       7.07520204
Si      27.87796656       9.14559751       7.15661689
Si      31.35799181       9.79882340       5.75930539
Si      34.81547823       9.91764073       7.38063371
Si      11.00962721       7.64415360       4.64617090
Si      14.33729008       7.91621768       6.57196829
Si      17.84452548       8.29973179       4.60374430
Si      21.30781921       8.49540910       6.89107070
Si      24.62924305       8.90384280       5.13702366
Si      27.85825059      11.55145129       7.65305336
Si      31.42172042      11.98649979       6.19689796
Si      34.89030718      12.19274914       7.97433646
Si      37.20668522      12.38619905       8.74372920
Si      17.31230269      10.67651634       8.24620990
Si      21.34914765      11.00918419       7.25589974
Si      24.64572360      11.31275678       5.41325478
Si      16.04749266       1.85083435       4.44180742
Si      19.57383201       2.02138348       6.60744616
Si      23.09482846       2.43265951       4.44126562
Si      26.60820890       2.74040940       7.35614775
Si       3.14561253       0.76867713       4.84035429
Si       6.22708833       1.16712529       6.30488359
Si       9.43624047       1.45116887       3.85890947
Si      12.67521699       1.26484271       5.98418954
Si      16.07270936       4.13074152       4.30916988
Si      19.31169096       4.41387703       6.67204703
Si      23.06865036       4.81928578       4.83737360
Si      26.33813657       5.10088772       7.37393910
Si      29.66974203       5.58155700       5.50176392
Si       5.73220172       3.46046743       6.67584800
Si       9.08730109       3.75992341       4.44959164
Si      12.53974986       3.53314531       5.88827342
Si      13.60820059       4.94618652       4.36616244
Si      16.84971304       4.91323370       6.23685348
Si      20.57736738       5.25632073       4.79365176
Si      23.98338504       5.42755732       6.87703930
Si      27.47065922       6.03403338       5.30626282
Si      30.30157856       6.35060205       7.48530173
Si       6.99015652       4.56227605       4.92826692
Si      10.11566214       4.01404024       6.65529766
Si      13.71676092      10.10811243      10.16817882
64
Lattice="5.044186 -8.782773 0.000431 5.042407 8.781748 -0.000373 5.4e-05 -0.000438 9.525936" Properties=species:S:1:pos:R:3 config_type=sh task=SinglePoint cut_off_energy="250 eV" spin_polarized=F opt_strategy_bias=3 xc_functional=PW91 elec_energy_tol=1e-07 max_scf_cycles=250 fix_occupancy=F calculate_stress=T finite_basis_corr=automatic smearing_width=0.05 fine_grid_scale=4 mixing_scheme=pulay mix_history_length=20 num_dump_cycles=0 popn_calculate=F mix_charge_amp=0.05 kpoints_mp_grid="8 8 7" castep_file_name=md_sample_sh.xyz-00044/eval.castep castep_run_time=1876.29 dft_energy=-10414.062856 dft_virial="107.69804618 -0.1543997 0.07319186 -0.1543997 105.56903569 -0.07805833 0.07319186 -0.07805833 103.73135483" in_file=md_sample_sh.xyz@44 cutoff_factor=1.2 cutoff=-1.0 nneightol=1.2 pbc="T T T"
Si      10.05311940       0.01352871       0.04124729
Si       5.05700062       8.73287745       2.39110602
Si       0.03270329       0.04079175       4.74314284
Si       0.06128289       0.03187973       7.12012164
Si       6.29297655      -6.55547088       9.50978281
Si       6.24452364      -6.58619226       2.38119263
Si       6.31715708      -6.54935508       4.79945500
Si       6.25169418      -6.60619153       7.18515168
Si       7.48981613      -4.44456843       0.02433757
Si       2.56591996       4.39978740       2.39707229
Si       7.55880216      -4.36528863       4.78738806
Si       2.68601583       4.31956693       7.16953248
Si       3.84648567       6.61863393       9.50650799
Si       8.80957271      -2.18680406       2.38387330
Si       3.80421269       6.59814294       4.67671625
Si       8.78016768      -2.24409524       7.13077349
Si       1.34670834      -2.22584089       9.51163286
Si       1.25342234      -2.17639199       2.35577553
Si       6.28052764       6.59278577       4.74280262
Si       6.19170282       6.64980442       7.13939163
Si       2.51835302       0.05072877       9.47066912
Si       2.54955916       0.06777501       2.33718089
Si       2.54847260      -0.02493522       4.73365342
Si       2.56821338       0.04536065       7.11532483
Si       3.82728752       2.18986892       0.06005899
Si       3.79060583       2.18993998       2.41571795
Si       3.79252149       2.23166872       4.80287751
Si       3.77960733       2.19836361       7.18396286
Si       4.95144359       4.37617920       0.02197594
Si       5.08984917       4.38756797       2.42987563
Si       4.98999723       4.42016350       4.84338375
Si       5.14669529       4.42286830       7.17402860
Si       7.53602744       4.40550694       9.50814512
Si       7.57623823       4.34765850       2.34544432
Si       7.53053090       4.37974137       4.71064676
Si       2.62649252      -4.37485323       7.10863071
Si       3.82962130      -2.18191225       0.01781154
Si       3.74527241      -2.20091223       2.39126556
Si       3.76812297      -2.21351038       4.72837845
Si       3.74714349      -2.18347925       7.15803361
Si       5.10589428      -0.06930022       9.52202475
Si       5.05001700      -0.04392858       2.39397495
Si       4.96420172       0.02506068       4.77549339
Si       5.09802791      -0.01507352       7.13799480
Si       6.28902813       2.20287631       9.49897956
Si       6.27589183       2.13865539       2.37929788
Si       6.25044583       2.19827603       4.77372474
Si       6.26008991       2.21773353       7.13127875
Si       3.78522941      -6.57278063       9.51123619
Si       8.80204070       2.21735190       2.36423876
Si       3.79437190      -6.57897460       4.76976857
Si       8.71017775       2.12886247       7.13768880
Si       4.96915892      -4.37073382       0.00956403
Si       5.05212685      -4.39379074       2.38516253
Si       4.99258166      -4.37040144       4.76228223
Si       5.12848151      -4.46953457       7.11350765
Si       6.40211869      -2.27413933       9.52092333
Si       6.20559311      -2.19250141       2.35799569
Si       6.28459354      -2.18028927       4.75312072
Si       6.25983106      -2.19567010       7.16712682
Si       7.59395434      -0.00518119       0.01745728
Si       7.56712587      -0.04156606       2.36805018
Si       7.60317775       0.02199775       4.81893744
Si       7.58168517      -0.01705592       7.13581820
108
Lattice="11.56119689 0.0 0.0 0.0 16.35000126 0.0 0.0 0.0 26.56119805" Properties=species:S:1:pos:R:3 config_type=surface_110 dft_energy=-17579.891185 cutoff_factor=1.2 cutoff=-1.0 nneightol=1.2 pbc="T T T"
Si       0.00000000       0.00000000       0.00000000
Si       1.92686615       2.72500021       1.92686615
Si       9.63433074      14.98750115       0.00000000
Si       0.00000000       1.36250011       1.92686615
Si       0.00000000       0.00000000       3.85373230
Si       1.92686615       2.72500021       5.78059845
Si       9.63433074      14.98750115       3.85373230
Si       0.00000000       1.36250011       5.78059845
Si       0.00000000       0.00000000       7.70746460
Si       1.92686615       2.72500021       9.63433074
Si       9.63433074      14.98750115       7.70746460
Si       0.00000000       1.36250011       9.63433074
Si       0.00000000       5.45000042       0.00000000
Si       1.92686615       8.17500063       1.92686615
Si       9.63433074       4.08750032       0.00000000
Si       0.00000000       6.81250053       1.92686615
Si       0.00000000       5.45000042       3.85373230
Si       1.92686615       8.17500063       5.78059845
Si       9.63433074       4.08750032       3.85373230
Si       0.00000000       6.81250053       5.78059845
Si       0.00000000       5.45000042       7.70746460
Si       1.92686615       8.17500063       9.63433074
Si       9.63433074       4.08750032       7.70746460
Si       0.00000000       6.81250053       9.63433074
Si       0.00000000      10.90000084       0.00000000
Si       1.92686615      13.62500105       1.92686615
Si       9.63433074       9.53750074       0.00000000
Si       0.00000000      12.26250095       1.92686615
Si       0.00000000      10.90000084       3.85373230
Si       1.92686615      13.62500105       5.78059845
Si       9.63433074       9.53750074       3.85373230
Si       0.00000000      12.26250095       5.78059845
Si       0.00000000      10.90000084       7.70746460
Si       1.92686615      13.62500105       9.63433074
Si       9.63433074       9.53750074       7.70746460
Si       0.00000000      12.26250095       9.63433074
Si       3.85373230       0.00000000       0.00000000
Si       5.78059845       2.72500021       1.92686615
Si       1.92686615      14.98750115       0.00000000
Si       3.85373230       1.36250011       1.92686615
Si       3.85373230       0.00000000       3.85373230
Si       5.78059845       2.72500021       5.78059845
Si       1.92686615      14.98750115       3.85373230
Si       3.85373230       1.36250011       5.78059845
Si       3.85373230       0.00000000       7.70746460
Si       5.78059845       2.72500021       9.63433074
Si       1.92686615      14.98750115       7.70746460
Si       3.85373230       1.36250011       9.63433074
Si       3.85373230       5.45000042       0.00000000
Si       5.78059845       8.17500063       1.92686615
Si       1.92686615       4.08750032       0.00000000
Si       3.85373230       6.81250053       1.92686615
Si       3.85373230       5.45000042       3.85373230
Si       5.78059845       8.17500063       5.78059845
Si       1.92686615       4.08750032       3.85373230
Si       3.85373230       6.81250053       5.78059845
Si       3.85373230       5.45000042       7.70746460
Si       5.78059845       8.17500063       9.63433074
Si       1.92686615       4.08750032       7.70746460
Si       3.85373230       6.81250053       9.63433074
Si       3.85373230      10.90000084       0.00000000
Si       5.78059845      13.62500105       1.92686615
Si       1.92686615       9.53750074       0.00000000
Si       3.85373230      12.26250095       1.92686615
Si       3.85373230      10.90000084       3.85373230
Si       5.78059845      13.62500105       5.78059845
Si       1.92686615       9.53750074       3.85373230
Si       3.85373230      12.26250095       5.78059845
Si       3.85373230      10.90000084       7.70746460
Si       5.78059845      13.62500105       9.63433074
Si       1.92686615       9.53750074       7.70746460
Si       3.85373230      12.26250095       9.63433074
Si       7.70746460       0.00000000       0.00000000
Si       9.63433074       2.72500021       1.92686615
Si       5.78059845      14.98750115       0.00000000
Si       7.70746460       1.36250011       1.92686615
Si       7.70746460       0.00000000       3.85373230
Si       9.63433074       2.72500021       5.78059845
Si       5.78059845      14.98750115       3.85373230
Si       7.70746460       1.36250011       5.78059845
Si       7.70746460       0.00000000       7.70746460
Si       9.63433074       2.72500021       9.63433074
Si       5.78059845      14.98750115       7.70746460
Si       7.70746460       1.36250011       9.63433074
Si       7.70746460       5.45000042       0.00000000
Si       9.63433074       8.17500063       1.92686615
Si       5.78059845       4.08750032       0.00000000
Si       7.70746460       6.81250053       1.92686615
Si       7.70746460       5.45000042       3.85373230
Si       9.63433074       8.17500063       5.78059845
Si       5.78059845       4.08750032       3.85373230
Si       7.70746460       6.81250053       5.78059845
Si       7.70746460       5.45000042       7.70746460
Si       9.63433074       8.17500063       9.63433074
Si       5.78059845       4.08750032       7.70746460
Si       7.70746460       6.81250053       9.63433074
Si       7.70746460      10.90000084       0.00000000
Si       9.63433074      13.62500105       1.92686615
Si       5.78059845       9.53750074       0.00000000
Si       7.70746460      12.26250095       1.92686615
Si       7.70746460      10.90000084       3.85373230
Si       9.63433074      13.62500105       5.78059845
Si       5.78059845       9.53750074       3.85373230
Si       7.70746460      12.26250095       5.78059845
Si       7.70746460      10.90000084       7.70746460
Si       9.63433074      13.62500105       9.63433074
Si       5.78059845       9.53750074       7.70746460
Si       7.70746460      12.26250095       9.63433074
64
Lattice="11.3 0.0 0.0 0.0 11.3 0.0 0.0 0.0 11.3" Properties=species:S:1:pos:R:3 config_type=liq kpoints_mp_grid="6 6 6" iprint=2 reuse=NULL task=SinglePoint calculate_stress=T data_distribution=GVECTOR opt_strategy=memory xc_functional=PW91 cut_off_energy="250.0000000 eV" fine_grid_scale=4.0 finite_basis_corr=automatic spin_polarized=F elec_energy_tol="0.0000001 ev" max_scf_cycles=250 fix_occupancy=F smearing_width="0.0500000 eV" num_dump_cycles=0 mixing_scheme=pulay mix_history_length=20 castep_file_name=teach_01.xyz@294/filepot/filepot.castep castep_run_time=9462.87 dft_energy=-10392.093033 gap_energy=-10395.21234561 gap_virial="-2.7307832 0.96505883 -9.43965869 0.96505883 -13.7266316 -1.35724339 -9.43965869 -1.35724339 -11.92804507" cutoff=5.5 nneightol=1.2 pbc="T T T"
Si       5.60802050      10.03841150       0.90794370
Si       5.25501980       2.24968310       3.52510280
Si       8.85588910       6.12227220      10.03193660
Si       4.67031260       6.21574580       2.77105380
Si       1.55425850       4.47463050       5.36842660
Si       7.86590740       8.14993290       3.67063550
Si       4.21704700       7.10878480       7.12196060
Si       4.41611910       1.11173920       6.47678710
Si       6.57149240       6.90168970       6.23433430
Si       5.32332830       3.33144340       5.52182410
Si       6.47400730       0.69951520       2.34630940
Si       4.53519850       6.73179420       9.43684470
Si      10.98278640       8.00930440       7.75519000
Si       7.83435780       9.54447720       1.41400290
Si       4.66129520      10.54189430       3.08404120
Si      10.60692580       3.91778910      10.70869360
Si       8.28932970      11.07855390      10.44403630
Si       3.35069860       2.69438330       0.82143090
Si       2.88796360       7.20008880       4.02263050
Si       8.85067980       0.45815850       1.60999010
Si       9.37376810       9.63911470       6.91248120
Si       7.52198060       3.15342320       6.07567100
Si       3.12906040      10.97840200       8.69539520
Si       6.52047290       5.51465990       1.64442120
Si       9.64305840       2.50002330       9.35270490
Si       2.69492570      11.12018310       4.97992130
Si       1.37902940       8.73241400       0.57013020
Si       2.78472680       5.34319370       1.14971850
Si       7.45082450       3.08198460       8.75675420
Si       2.61891060       2.45881220       5.07319150
Si       9.82747440       7.54280650       5.71379980
Si       3.35419030       2.09786760       8.33093630
Si       8.02728270       2.51057750       1.03209680
Si       2.14197150       8.71485380       7.90579640
Si      10.49584680       0.77820840      10.82468810
Si       8.70655960       5.16556900       6.37897430
Si       5.97890910      11.05397640       5.26472650
Si       8.65417280       8.67391390      10.72183550
Si       6.51296970       5.90628400      10.46537070
Si       0.49104150       2.02602220       8.34349060
Si       1.54655190       4.12057890      10.18678050
Si       1.86060150       1.50769120      10.41501790
Si       4.87547540       4.05049630       8.88977780
Si       3.15472270      10.53725000      11.18910180
Si       7.99775580       7.66132090       7.88242800
Si       3.81829260       5.46877060       5.20613600
Si       9.32516680       0.65938890       7.57182490
Si       3.25919120       1.39611500       2.63577020
Si      10.54032360       9.59331580       9.75921110
Si       1.38105210       5.44827240       3.14555840
Si       5.48296340      11.15693070       9.33347230
Si       7.21022490       1.04904680       7.13085370
Si       5.60103710       8.39366260       3.76497920
Si       6.57408010       1.87285070      10.31340830
Si       2.78995870       8.01762120      10.13612260
Si       8.19708780      10.21987820       4.84889780
Si       0.02879240       4.68547720       6.86686310
Si      11.00436940       6.60573140       1.23560980
Si       8.15241890       7.19574960       1.14690480
Si       4.93256300       4.57186700       0.14803000
Si       8.29684420       5.80175900       3.82334370
Si       7.66683530       2.46925340       3.74623250
Si       9.22883430       4.32082620       1.39082660
Si      10.55934150       5.37413310       3.99658400
54
Lattice="7.627372 7.627372 0.0 1e-06 7.627372 7.627372 7.627372 0.0 7.627372" Properties=species:S:1:pos:R:3 config_type=dia task=SinglePoint cut_off_energy="250 eV" spin_polarized=F opt_strategy_bias=3 xc_functional=PW91 elec_energy_tol=1e-07 max_scf_cycles=250 fix_occupancy=F calculate_stress=T finite_basis_corr=automatic smearing_width="0.05 eV" fine_grid_scale=4 mixing_scheme=pulay mix_history_length=20 num_dump_cycles=0 popn_calculate=F nextra_bands=200 kpoints_mp_grid="4 4 4" castep_file_name=md_sample_dia.xyz-00158/eval.castep castep_run_time=386.54 dft_energy=-8794.750588 dft_virial="165.36277253 0.44252857 -2.59239699 0.44252857 165.42488229 0.86203117 -2.59239699 0.86203117 165.40029429" in_file=md_sample_dia.xyz@158 cutoff_factor=1.2 cutoff=-1.0 nneightol=1.2 pbc="T T T"
Si       7.61682335       7.59780831       0.04316330
Si       1.24241508       1.27219989       1.29066575
Si      10.17131513      15.25022097      10.17138277
Si       3.79933900       1.30430349       3.83360870
Si      12.71408164       7.63915629       5.11364189
Si       6.37194479       1.26547254       6.37041923
Si      15.23531742      10.18126022      10.16250451
Si       1.24255271       3.79544895       3.81897940
Si      10.15986578      10.18304503       5.11734879
Si       3.83783467       3.83751391       6.32327444
Si       5.09301781       2.58930211       7.61858527
Si       6.33722533       3.86326392       8.90647466
Si       7.61832660       5.05834345      12.65956881
Si       1.24266745       6.35071010       6.33655370
Si      10.16065935      12.66695974       7.60886037
Si       3.81165787       6.34399039       8.90771792
Si      12.70014710      12.69480727      10.16606650
Si       6.31651735       6.34977194      11.43457473
Si       2.57458128       2.54731343       0.02830518
Si       3.84306672       3.79888890       1.26417589
Si       5.10005754       2.53829787       2.59063690
Si       6.33579105       3.81513520       3.82292275
Si       7.62693824      10.19678955      12.68403742
Si       8.92236256       3.82865853       6.35431022
Si       2.53719986       5.04132678       2.54035726
Si       3.84801721       6.35285339       3.79738631
Si       5.08521501       5.09778459       5.07703813
Si       6.38481250       6.36083925       6.36080874
Si       7.57176117       5.06925821       7.63220013
Si       8.90404194       6.32262612       8.86629366
Si      10.16284079       7.64482343      12.72673545
Si       3.80181856       8.90597125       6.34614893
Si       5.10812034       7.65438815       7.63178825
Si       6.34431912       8.91767927       8.91939543
Si       7.63223130       7.62844746      10.16307657
Si       8.91186033       8.90199739      11.44402505
Si      12.71738529      12.70963488      15.23125169
Si       6.35876469       6.33971906       1.28094848
Si       7.62239232      12.70033712      10.14990410
Si       8.88088491       6.34778882       3.80010928
Si      10.16054428       5.10718914       5.08773934
Si      11.44529128       6.38220352       6.35903919
Si       5.13010972       7.60436785       2.53411807
Si       6.36602628       8.86925308       3.80531115
Si       7.65546394       7.60763236       5.08969194
Si       8.86987894       8.89266149       6.32999416
Si      10.14917983       7.62911867       7.59592435
Si      11.47167469       8.93468068       8.93422304
Si       5.12060635      10.15483900       5.09111826
Si       6.35878061      11.44098935       6.37712369
Si       7.61494005      10.16402999       7.61793694
Si       8.90785596      11.43433066       8.89369881
Si      10.17271061      10.17475407      10.18536375
Si      11.44041805      11.44945574      11.43101275
128
Lattice="11.40742 11.388903 0.073647 0.105757 11.359401 11.363391 11.407236 0.07448 11.392883" Properties=species:S:1:pos:R:3 config_type=dia task=SinglePoint cut_off_energy="250 eV" spin_polarized=F opt_strategy_bias=3 xc_functional=PW91 elec_energy_tol=1e-07 max_scf_cycles=250 fix_occupancy=F calculate_stress=T finite_basis_corr=automatic smearing_width="0.05 eV" fine_grid_scale=4 mixing_scheme=pulay mix_history_length=20 num_dump_cycles=0 popn_calculate=F nextra_bands=220 kpoints_mp_grid="3 3 3" castep_file_name=md_sample_dia.xyz-00002/eval.castep castep_run_time=1387.92 dft_energy=-20876.900954 dft_virial="-143.81293582 -11.68034713 -9.87533295 -11.68034713 -141.35989727 -1.86868497 -9.87533295 -1.86868497 -142.07197511" in_file=md_sample_dia.xyz@2 cutoff_factor=1.2 cutoff=-1.0 nneightol=1.2 pbc="T T T"
Si      22.71645237      11.46758399      11.39808078
Si       1.38145048       1.34878665       1.34726055
Si      14.18565503      11.40871301       2.92550589
Si       4.21564677       1.48262172       4.26010849
Si      17.01313631      11.43165195       5.72621918
Si       7.02423158       1.42060197       7.10381582
Si      20.00297259      22.75255357      19.96389485
Si       9.94289407       1.50327510       9.84890804
Si      22.78933765      14.22331601      14.18828263
Si       1.39412207       4.20910290       4.19301866
Si      14.23335871      14.26485691       5.81076815
Si       4.31291214       4.28155819       7.11515930
Si      17.07856819      14.21092507       8.62366203
Si       7.11269259       4.32712947       9.91331826
Si       8.54084203       2.91077782      11.34299431
Si       9.97367296       4.32776340      12.77169616
Si      11.38974345       5.80370310      16.95171299
Si       1.43543356       7.04265388       7.03009977
Si       2.93394530       5.67553533       8.49138878
Si       4.25071451       7.15186507       9.97507977
Si       5.69767163       5.75290512      11.29804206
Si       7.10570402       7.14201680      12.73974475
Si      19.89423631      17.09317025      14.22838757
Si       9.90935697       7.14534701      15.58048218
Si      22.82453766      19.89154219      19.88142106
Si       1.37681756       9.87211623       9.88813189
Si      14.22261301      19.96799704      11.44767282
Si       4.26860138       9.97015527      12.77340909
Si       5.75795197       8.56550249      14.17004246
Si       7.10093436       9.99292327      15.66060805
Si      19.96875345      19.95839762      17.14509011
Si      10.00956047       9.97676055      18.43904519
Si      14.21249702       2.94993252      11.43242503
Si       4.28784215       4.25124331       1.45765009
Si       5.81747731      14.19543374      14.21243534